
:LABEL1: Calculations in /gpfs/data/fs71152/pickemVeCoCo/FeAs2/FeAs2_PBE
:LABEL2: on n404-023.vsc4.prov at Fri 20 Aug 16:44:59 CEST 2021
:LABEL3: using WIEN2k_19.1 (Release 25/6/2019) in /home/fs71152/pickemVeCoCo/wien2k_19.1
:LABEL4: using the command: run_lapw -i 500 -fc 1.0 -ec 0.0001 -cc 0.0001
 Flat Integration
 New Mode for Coulomb Integral
 Consistent 3/8+Simpson combinations
 Extension of core to zero
 LDM version in phi
 Fifth-order quadrature in outwin


            ---------
:ITE001:  1. ITERATION
            ---------

:NATO :    2 INDEPENDENT AND    6 TOTAL ATOMS IN UNITCELL
       SUBSTANCE: blebleble                                                   

       LATTICE                      = P   
:POT  : POTENTIAL OPTION EX_PBE EC_PBE VX_PBE VC_PBE
:LAT  : LATTICE CONSTANTS= 10.01782 11.31152  5.44657    1.571    1.571    1.571
:VOL  : UNIT CELL VOLUME =     617.18753
       MODE OF CALCULATION IS       = RELA
       NON-SPINPOLARIZED CALCULATION
:IFFT  : FFT-parameters:   80   90   48 Factor: 2.00


   CONVERGENCE PARAMETER FOR PSEUDOCHARGE: NCON=  9
   MAXIMAL VALUE OF RMT(JATOM)*ABSK(NKK) : RK  =27.23101


:VKCOUL :  VK-COUL convergence: 0.420E-06
       ATOMNUMBER=  1 Fe1        VCOUL-ZERO =  0.47643E+00
:EFG001:                        EFG         =     0.05033   *10**21  V / m**2
                               V20  TOT/SRF=    -0.03352    -0.08085
                               V22  TOT/SRF=     0.00684     0.01323
                               V22M TOT/SRF=    -0.03021    -0.05779
                               V21  TOT/SRF=     0.00000     0.00000
                               V21M TOT/SRF=     0.00000     0.00000

              0.02620   -0.03021    0.00000        0.05033    0.00000    0.00000
             -0.03021    0.01251    0.00000        0.00000   -0.01162    0.00000
              0.00000    0.00000   -0.03871        0.00000    0.00000   -0.03871

         MAIN DIRECTIONS OF THE EFG   1.0000  0.7988  0.0000
                                     -0.7988  1.0000  0.0000
                                      0.0000  0.0000  1.0000
:ANG001:  ANGLE WITH OLD X-AXIS =        38.6

:ETA001:                         ASYMM. ETA =     0.53820


       ATOMNUMBER=  2 As1        VCOUL-ZERO =  0.37727E+00
:EFG002:                        EFG         =     0.10969   *10**21  V / m**2
                               V20  TOT/SRF=    -0.04177    -0.06333
                               V22  TOT/SRF=     0.01129     0.01904
                               V22M TOT/SRF=     0.08482     0.10916
                               V21  TOT/SRF=     0.00000     0.00000
                               V21M TOT/SRF=     0.00000     0.00000

              0.03541    0.08482    0.00000        0.10969    0.00000    0.00000
              0.08482    0.01282    0.00000        0.00000   -0.06146    0.00000
              0.00000    0.00000   -0.04823        0.00000    0.00000   -0.04823

         MAIN DIRECTIONS OF THE EFG   1.0000 -0.8757  0.0000
                                      0.8757  1.0000  0.0000
                                      0.0000  0.0000  1.0000
:ANG002:  ANGLE WITH OLD X-AXIS =        41.2

:ETA002:                         ASYMM. ETA =     0.12063


     HELLMANN-FEYNMAN-FORCE IN mRy/a.u. = |F|  Fx       Fy             Fz
:FHF001:   1.ATOM      0.000000000000      0.000000000000      0.000000000000      0.000000000000

     HELLMANN-FEYNMAN-FORCE IN mRy/a.u. = |F|  Fx       Fy             Fz
:FHF002:   2.ATOM    355.982354205523   -354.966217968932    -26.877883222816      0.000000000000

:FIT001: LUSE= 13 SIGMA OF V-XC FIT FOR ATOM  1  0.6586309E-02
:FIT001: LUSE= 13 SIGMA OF V-XC FIT FOR ATOM  1  0.6586309E-02
:FIT002: LUSE= 13 SIGMA OF V-XC FIT FOR ATOM  2  0.1692740E-02
:FIT002: LUSE= 13 SIGMA OF V-XC FIT FOR ATOM  2  0.1692740E-02
:DEN  : DENSITY INTEGRAL  =         -9839.01200320   (Ry)
       ELS_POTENTIAL_AT Z=0 and Z=0.5:  -0.29575  -0.29575
       ELS_POTENTIAL_AT Y=0 and Y=0.5:  -0.05830  -0.05830
:VZERO:v0,v0c,v0x  -1.12107  -0.29575  -0.82532 v5,v5c,v5x  -1.12107  -0.29575  -0.82532
:VZERY:v0,v0c,v0x  -0.91358  -0.05830  -0.85528 v5,v5c,v5x  -0.91358  -0.05830  -0.85528
:VZERX:v0,v0c,v0x  -0.64657   0.14776  -0.79433 v5,v5c,v5x  -0.64657   0.14776  -0.79433
:LMAX-WF:   10   Non-Spherical LMAX:   4

          ATOMIC SPHERE DEPENDENT PARAMETERS FOR ATOM  Fe1       
:e__0001: OVERALL ENERGY PARAMETER IS    0.3000
          OVERALL BASIS SET ON ATOM IS LAPW
:E1_0001: E( 1)=    0.3000
             APW+lo
:E1_0001: E( 1)=   -3.0822   E(BOTTOM)=   -3.147   E(TOP)=   -3.018  1  2   165
             LOCAL ORBITAL
:E2_0001: E( 2)=    0.3546   E(BOTTOM)=    0.355   E(TOP)= -200.000  0 -1    87
             APW+lo
:E0_0001: E( 0)=    0.3000
             APW+lo

          ATOMIC SPHERE DEPENDENT PARAMETERS FOR ATOM  As1       
:e__0002: OVERALL ENERGY PARAMETER IS    0.3000
          OVERALL BASIS SET ON ATOM IS LAPW
:E2_0002: E( 2)=    0.3000
             APW+lo
:E2_0002: E( 2)=   -1.9408   E(BOTTOM)=   -1.993   E(TOP)=   -1.889  0  1   171
             LOCAL ORBITAL
:E0_0002: E( 0)=    0.7000
             APW+lo
:E0_0002: E( 0)=   -0.7600   E(BOTTOM)=   -1.037   E(TOP)= -200.000  3 -1   149
             LOCAL ORBITAL
:E1_0002: E( 1)=    0.3000
             APW+lo

       K=   0.00000   0.00000   0.00000            1
:RKM  : MATRIX SIZE   437LOs:  84  RKM= 6.97  WEIGHT= 1.00  PGR:    
       EIGENVALUES ARE:
:EIG00001:      -3.0715728   -3.0715407   -3.0683407   -3.0683120   -3.0637991
:EIG00006:      -3.0637448   -1.9317524   -1.9314436   -1.9298208   -1.9297013
:EIG00011:      -1.9296824   -1.9293895   -1.9292500   -1.9288695   -1.9283262
:EIG00016:      -1.9280988   -1.9278549   -1.9277747   -1.9266867   -1.9265291
:EIG00021:      -1.9250440   -1.9248564   -1.9234309   -1.9231489   -1.9229258
:EIG00026:      -1.9226675   -0.4131463   -0.2184893   -0.1575343   -0.1222646
:EIG00031:       0.1786909    0.2547382    0.3378530    0.4005639    0.4011851
:EIG00036:       0.4819408    0.6137519    0.6431771    0.6597601    0.6609538
:EIG00041:       0.6862666    0.7224874    0.7334409    0.7398342    0.8306174
:EIG00046:       0.8620792    0.9509363    0.9958957    1.0029453    1.0664985
 
:EIG00051:       1.1026662    1.1545640    1.1770640    1.2913480    1.3295907
:EIG00056:       1.4469915    1.4530329    1.5189130    1.5301653    1.5494518
:EIG00061:       1.5864866    1.5909390    1.6283839    1.6494696    1.7021164
:EIG00066:       1.7215673    1.7505428    1.8585706    1.8627905    1.8644718
:EIG00071:       1.8688406    1.9106659    1.9179534
       ********************************************************

:KPT   :      NUMBER OF K-POINTS:   396
       Insulator, EF-inconsistency corrected
:GAP (global)   :  0.023939 Ry =     0.326 eV (accurate value if proper k-mesh)
         Bandranges (emin - emax) and occupancy:
:BAN00034:  34    0.245815    0.498130  2.00000000
:BAN00035:  35    0.372169    0.555687  2.00000000
:BAN00036:  36    0.374755    0.558896  2.00000000
:BAN00037:  37    0.446044    0.631854  2.00000000
:BAN00038:  38    0.455834    0.643177  2.00000000
:BAN00039:  39    0.480316    0.663584  2.00000000
:BAN00040:  40    0.480316    0.663731  2.00000000
:BAN00041:  41    0.608115    0.693520  2.00000000
:BAN00042:  42    0.608115    0.722487  2.00000000
:BAN00043:  43    0.646550    0.737060  2.00000000
:BAN00044:  44    0.646550    0.739834  2.00000000
:BAN00045:  45    0.763773    0.909364  0.00000000
:BAN00046:  46    0.777208    0.911199  0.00000000
:BAN00047:  47    0.811227    1.003973  0.00000000
:BAN00048:  48    0.811227    1.003973  0.00000000
:BAN00049:  49    0.871211    1.035384  0.00000000
        Energy to separate low and high energystates:    0.12276


:NOE  : NUMBER OF ELECTRONS          =   88.000

:FER  : F E R M I - ENERGY(TETRAH.M.)=   0.7398341924
:GMA  : POTENTIAL AND CHARGE CUT-OFF  12.00 Ry**.5

:POS001: ATOM   -1 X,Y,Z = 0.50000 0.50000 0.50000  MULT= 2  ZZ= 26.000  Fe1       

       LMMAX 16
       LM=   0 0  2 0  2 2 -2 2  4 0  4 2 -4 2  4 4 -4 4  6 0  6 2 -6 2  6 4 -6 4  6 6 -6 6

:CHA001: TOTAL VALENCE CHARGE INSIDE SPHERE   1 =  12.0841    (RMT=  2.2700 )
:PCS001: PARTIAL CHARGES SPHERE =  1 S,P,D,F,PX,PY,PZ,D-Z2,D-X2Y2,D-XY,D-XZ,D-YZ 
:QTL001: 0.3383 6.4324 5.2795 0.0273 2.1542 2.1538 2.1244 0.7458 1.1202 1.0645 1.0489 1.3001
        Q-s-low E-s-low   Q-p-low E-p-low   Q-d-low E-d-low   Q-f-low E-f-low
:EPL001:  0.0950 -0.2134    6.0596 -3.0281    0.0808 -0.1366    0.0056 -0.3822
        Q-s-hi  E-s-hi    Q-p-hi  E-p-hi    Q-d-hi  E-d-hi    Q-f-hi  E-f-hi 
:EPH001:  0.2432  0.3495    0.3727  0.4753    5.1987  0.6125    0.0217  0.5039

                      QXX         QXY         QYY         QZZ       UP TO R
:VZZ001:            -0.28963    -3.78993    -9.68984     9.97946       2.270

:POS002: ATOM   -2 X,Y,Z = 0.67630 0.86240 0.50000  MULT= 4  ZZ= 33.000  As1       

       LMMAX 28
       LM=   0 0  1 1 -1 1  2 0  2 2 -2 2  3 1 -3 1  3 3 -3 3  4 0  4 2 -4 2  4 4 -4 4  5 1 -5 1
         5 3 -5 3  5 5 -5 5  6 0  6 2 -6 2  6 4 -6 4  6 6 -6 6

:CHA002: TOTAL VALENCE CHARGE INSIDE SPHERE   2 =  13.0522    (RMT=  2.1600 )
:PCS002: PARTIAL CHARGES SPHERE =  2 S,P,D,F,PX,PY,PZ,D-Z2,D-X2Y2,D-XY,D-XZ,D-YZ 
:QTL002: 1.2720 1.688710.0718 0.0163 0.5737 0.5951 0.5200 2.0171 2.0121 2.0228 2.0085 2.0112
        Q-s-low E-s-low   Q-p-low E-p-low   Q-d-low E-d-low   Q-f-low E-f-low
:EPL002:  1.1459 -0.1588    0.0547 -0.1797    9.9676 -1.9261    0.0013 -0.6658
        Q-s-hi  E-s-hi    Q-p-hi  E-p-hi    Q-d-hi  E-d-hi    Q-f-hi  E-f-hi 
:EPH002:  0.1261  0.4165    1.6340  0.4521    0.1041  0.5637    0.0150  0.5861

                      QXX         QXY         QYY         QZZ       UP TO R
:VZZ002:            -1.95611   -12.67647    -7.77438     9.73049       2.160

:CHA  : TOTAL VALENCE CHARGE INSIDE UNIT CELL =      88.000000

:SUM  : SUM OF EIGENVALUES =        -100.813640632



   QTL-B VALUE .EQ.    2.74843   in Band of energy    0.73983   ATOM=    1   L=  2
    Most likely no ghostbands, but adjust Energy-parameters for this ATOM and L


:WARN : QTL-B value eq.   2.75 in Band of energy   0.73983  ATOM=    1  L=  2
:WARN : You should change the E-parameter for this atom and L-value in case.in1 (or try the -in1new switch)

        1.ATOM      Fe1                   5 CORE STATES
:1S 001: 1S                -512.920194128 Ry
:2S 001: 2S                 -58.810593837 Ry
:2PP001: 2P*                -50.515869930 Ry
:2P 001: 2P                 -49.598212832 Ry
:3S 001: 3S                  -5.549495968 Ry

        2.ATOM      As1                   7 CORE STATES
       CORE-FORCE in mRy/a.u. = |F|      Fx             Fy             Fz
:FCO002:   2.ATOM    201.197330540904    200.273604992160     19.257439088051      0.000000000000

:1S 002: 1S                -860.025676252 Ry
:2S 002: 2S                -108.157425238 Ry
:2PP002: 2P*                -96.514052080 Ry
:2P 002: 2P                 -93.826769014 Ry
:3S 002: 3S                 -12.919336238 Ry
:3PP002: 3P*                 -9.008839285 Ry
:3P 002: 3P                  -8.640023671 Ry
:CINT001 Core Integral Atom   1   11.998166
:CINT002 Core Integral Atom   2   17.999373

       DENSITY AT NUCLEUS
        JATOM        VALENCE       SEMI-CORE          CORE           TOTAL
:RTO001:   1        6.257363        0.000000    15301.095597    15307.352960
:RTO002:   2       43.412923        0.000000    36569.868748    36613.281671
     
       CHARGES OF NEW CHARGE DENSITY
:NTO   : INTERSTITIAL CHARGE =    11.622767
:NPC   : PW Pseudocharge     =    20.407003
:NTO001: CHARGE SPHERE  1    =    24.082291
:NTO002: CHARGE SPHERE  2    =    31.051614

:NEC01: NUCLEAR AND ELECTRONIC CHARGE    184.00000   183.99380
     
       CHARGES OF OLD CHARGE DENSITY
:OTO   : INTERSTITIAL CHARGE =    10.274978
:OPC   : PW Pseudocharge     =    25.186836
:OTO001: CHARGE SPHERE  1    =    25.114655
:OTO002: CHARGE SPHERE  2    =    30.874939

:NEC02: NUCLEAR AND ELECTRONIC CHARGE    184.00000   184.00404
     
       CONVERGENCE TEST
:DTO001: DIFFERENCE IN SPHERE  1 =  1.7438133
:DTO002: DIFFERENCE IN SPHERE  2 =  0.1344149

:DIS  :  CHARGE DISTANCE       ( 1.7438133 for atom    1 spin 1)      0.6708810
 PW Mixed is          458
 
******************************************************
* MULTISECANT MIXING VER9 RELEASE 10.4.0              *
* Standard Mode with controls                        *
* Fixed density scale                                *
* Regularization       1.000E-04                     *
* Trust Upper Limit    5.000E+00                     *
* Max Number of Memory Steps    8                    *
******************************************************
 
:PWTMP   3.5034E+02  5.6146E+02  6.1719E+02
:PLANE:  PW TOTAL      4.9248 DISTAN   1.78E+00  3.60E+01 %
:CHARG:  CLM/ATOM    381.2321 DISTAN   1.36E+00  3.56E-01 %
INFO: Reducing dbase  2.50000E-02 1.74381E+00 1.89317E-02
 
Step History
        DMIX         DMIXT        Red     Pred      Trust     Lambda    MagRel    MagAbs     Beta
  1   3.5000E-02   3.5000E-02 -1.00E+00  1.00E+00 -1.00E+01  1.00E+00  3.50E-02  3.50E-02  1.00E+00
:INFO :  Note, Pratt in use
INFO: Reducing dbase  1.89317E-02 1.74381E+00 1.43364E-02
:TRUST:  Step 2.42E-02  Charge 7.50E-02 (e) CTO  2.50E-01 (e) PW  3.50E-01 (e)
:DIRM :  MEMORY  0/ 8 SCALE   1.000
Performing Pseudo Compensation
Final Pseudo Compensation Rescaling     9.99445E-01
:MIX  :   PRATT  REGULARIZATION:  1.00E-04 GREED: 0.01611                  
     
       CHARGES OF MIXED CHARGE DENSITY
:CTO   : INTERSTITIAL CHARGE =    10.292819
:CPC   : PW Pseudocharge     =    21.479152
:CTO001: CHARGE SPHERE  1    =    25.098019
:CTO002: CHARGE SPHERE  2    =    30.877786

:NEC03: NUCLEAR AND ELECTRONIC CHARGE    184.00000   184.00000

PW CHANGE     H    K    L      Current       Change    Residue
:PTO001:      0    0    0  5.14786336E-02 -5.956E-03 -5.511E-03
:PTO004:     -1   -1    0 -3.44151375E-03 -7.150E-03 -5.714E-03
:PTO005:      0   -2    0  2.00156692E-03 -3.916E-03 -5.187E-03
:PTO007:     -2    0    0 -8.98548974E-03 -1.432E-03 -2.607E-03
:PTO008:     -1   -2    0 -3.89044403E-02  8.867E-03  1.175E-02
:PTO009:      0   -1   -1 -1.93637981E-02 -2.304E-03 -3.375E-03
:PTO010:     -1    0   -1  2.66097251E-02 -1.307E-02 -1.601E-02
:PTO011:     -2   -1    0  2.22811173E-02 -5.907E-03 -7.414E-03
:PTO012:     -1   -1   -1  4.47476063E-02 -1.298E-02 -1.636E-02
:PTO015:     -2   -2    0  3.95435668E-03 -7.880E-03 -1.281E-02
:PTO017:     -1   -2   -1  9.93202193E-04 -1.250E-02 -2.024E-02
:PTO018:     -1   -3    0  6.46692449E-03 -9.717E-03 -1.595E-02

:ENE  : *WARNING** TOTAL ENERGY IN Ry =       -23180.26727764

       TOTAL FORCE IN mRy/a.u. = |F|     Fx             Fy             Fz     with/without FOR in case.in2
:FOR001:   1.ATOM          0.000          0.000          0.000          0.000 partial forces
:FOR002:   2.ATOM        154.880       -154.693         -7.620          0.000 partial forces
       TOTAL FORCE WITH RESPECT TO GLOBAL CARTESIAN COORDINATES:
:FCA001:   1.ATOM                         0.000          0.000          0.000 partial forces
:FCA002:   2.ATOM                      -154.693         -7.620          0.000 partial forces
       TOTAL FORCE WITH RESPECT TO THE GLOBAL COORDINATE SYSTEM:
:FGL001:   1.ATOM                 0.000000000     0.000000000     0.000000000 partial forces
:FGL002:   2.ATOM              -154.692612977    -7.620444135     0.000000000 partial forces
 Flat Integration
 New Mode for Coulomb Integral
 Consistent 3/8+Simpson combinations
 Extension of core to zero
 LDM version in phi
 Fifth-order quadrature in outwin


            ---------
:ITE002:  2. ITERATION
            ---------

:NATO :    2 INDEPENDENT AND    6 TOTAL ATOMS IN UNITCELL
       SUBSTANCE: blebleble                                                   

       LATTICE                      = P   
:POT  : POTENTIAL OPTION EX_PBE EC_PBE VX_PBE VC_PBE
:LAT  : LATTICE CONSTANTS= 10.01782 11.31152  5.44657    1.571    1.571    1.571
:VOL  : UNIT CELL VOLUME =     617.18753
       MODE OF CALCULATION IS       = RELA
       NON-SPINPOLARIZED CALCULATION
:IFFT  : FFT-parameters:   80   90   48 Factor: 2.00


   CONVERGENCE PARAMETER FOR PSEUDOCHARGE: NCON=  9
   MAXIMAL VALUE OF RMT(JATOM)*ABSK(NKK) : RK  =27.23101


:VKCOUL :  VK-COUL convergence: 0.329E-07
       ATOMNUMBER=  1 Fe1        VCOUL-ZERO =  0.46993E+00
:EFG001:                        EFG         =    -0.18500   *10**21  V / m**2
                               V20  TOT/SRF=     0.10627    -0.07823
                               V22  TOT/SRF=     0.08278     0.01359
                               V22M TOT/SRF=    -0.09185    -0.05793
                               V21  TOT/SRF=     0.00000     0.00000
                               V21M TOT/SRF=     0.00000     0.00000

              0.02143   -0.09185    0.00000        0.06229    0.00000    0.00000
             -0.09185   -0.14414    0.00000        0.00000   -0.18500    0.00000
              0.00000    0.00000    0.12271        0.00000    0.00000    0.12271

         MAIN DIRECTIONS OF THE EFG   1.0000  0.4449  0.0000
                                     -0.4449  1.0000  0.0000
                                      0.0000  0.0000  1.0000
:ANG001:  ANGLE WITH OLD X-AXIS =        24.0

:ETA001:                         ASYMM. ETA =     0.32661


       ATOMNUMBER=  2 As1        VCOUL-ZERO =  0.37347E+00
:EFG002:                        EFG         =    -0.18456   *10**21  V / m**2
                               V20  TOT/SRF=     0.09314    -0.06292
                               V22  TOT/SRF=     0.05859     0.01936
                               V22M TOT/SRF=    -0.11693     0.10999
                               V21  TOT/SRF=     0.00000     0.00000
                               V21M TOT/SRF=     0.00000     0.00000

              0.00482   -0.11693    0.00000        0.07701    0.00000    0.00000
             -0.11693   -0.11236    0.00000        0.00000   -0.18456    0.00000
              0.00000    0.00000    0.10755        0.00000    0.00000    0.10755

         MAIN DIRECTIONS OF THE EFG   1.0000  0.6174  0.0000
                                     -0.6174  1.0000  0.0000
                                      0.0000  0.0000  1.0000
:ANG002:  ANGLE WITH OLD X-AXIS =        31.7

:ETA002:                         ASYMM. ETA =     0.16545


     HELLMANN-FEYNMAN-FORCE IN mRy/a.u. = |F|  Fx       Fy             Fz
:FHF001:   1.ATOM      0.000000000000      0.000000000000      0.000000000000      0.000000000000

     HELLMANN-FEYNMAN-FORCE IN mRy/a.u. = |F|  Fx       Fy             Fz
:FHF002:   2.ATOM    358.465817627774   -356.368132905835    -38.723329618690      0.000000000000

:FIT001: LUSE= 13 SIGMA OF V-XC FIT FOR ATOM  1  0.6596310E-02
:FIT001: LUSE= 13 SIGMA OF V-XC FIT FOR ATOM  1  0.6596310E-02
:FIT002: LUSE= 13 SIGMA OF V-XC FIT FOR ATOM  2  0.1640874E-02
:FIT002: LUSE= 13 SIGMA OF V-XC FIT FOR ATOM  2  0.1640874E-02
:DEN  : DENSITY INTEGRAL  =         -9836.80529884   (Ry)
       ELS_POTENTIAL_AT Z=0 and Z=0.5:  -0.28686  -0.28686
       ELS_POTENTIAL_AT Y=0 and Y=0.5:  -0.04424  -0.04424
:VZERO:v0,v0c,v0x  -1.07938  -0.28686  -0.79251 v5,v5c,v5x  -1.07938  -0.28686  -0.79251
:VZERY:v0,v0c,v0x  -0.85939  -0.04424  -0.81515 v5,v5c,v5x  -0.85939  -0.04424  -0.81515
:VZERX:v0,v0c,v0x  -0.59773   0.15999  -0.75772 v5,v5c,v5x  -0.59773   0.15999  -0.75772
:LMAX-WF:   10   Non-Spherical LMAX:   4

          ATOMIC SPHERE DEPENDENT PARAMETERS FOR ATOM  Fe1       
:e__0001: OVERALL ENERGY PARAMETER IS    0.5000
          OVERALL BASIS SET ON ATOM IS LAPW
:E1_0001: E( 1)=    0.5000
             APW+lo
:E1_0001: E( 1)=   -3.1119   E(BOTTOM)=   -3.176   E(TOP)=   -3.048  1  2   160
             LOCAL ORBITAL
:E2_0001: E( 2)=    0.6597   E(BOTTOM)=    0.333   E(TOP)=    0.986  0  1   137
             APW+lo
:E0_0001: E( 0)=    0.5000
             APW+lo

          ATOMIC SPHERE DEPENDENT PARAMETERS FOR ATOM  As1       
:e__0002: OVERALL ENERGY PARAMETER IS    0.5000
          OVERALL BASIS SET ON ATOM IS LAPW
:E2_0002: E( 2)=    0.5000
             APW+lo
:E2_0002: E( 2)=   -1.9444   E(BOTTOM)=   -1.997   E(TOP)=   -1.892  0  1   167
             LOCAL ORBITAL
:E0_0002: E( 0)=    0.9000
             APW+lo
:E0_0002: E( 0)=   -0.7600   E(BOTTOM)=   -1.041   E(TOP)= -200.000  3 -1   153
             LOCAL ORBITAL
:E1_0002: E( 1)=    0.5000
             APW+lo

       K=   0.00000   0.00000   0.00000            1
:RKM  : MATRIX SIZE   437LOs:  84  RKM= 6.97  WEIGHT= 1.00  PGR:    
       EIGENVALUES ARE:
:EIG00001:      -3.1013959   -3.1013714   -3.0977568   -3.0977361   -3.0940926
:EIG00006:      -3.0940382   -1.9351829   -1.9349278   -1.9333349   -1.9332739
:EIG00011:      -1.9331986   -1.9329602   -1.9327464   -1.9323656   -1.9318081
:EIG00016:      -1.9315778   -1.9314120   -1.9313192   -1.9301375   -1.9300263
:EIG00021:      -1.9286413   -1.9284428   -1.9270022   -1.9267175   -1.9265257
:EIG00026:      -1.9262677   -0.4170296   -0.2217870   -0.1614031   -0.1262315
:EIG00031:       0.1727314    0.2490313    0.3332970    0.3936775    0.3968555
:EIG00036:       0.4697255    0.5933337    0.6227546    0.6390856    0.6400179
:EIG00041:       0.6642800    0.6994962    0.7085267    0.7145516    0.8267329
:EIG00046:       0.8365848    0.9473024    0.9921323    0.9993963    1.0461467
 
:EIG00051:       1.0977762    1.1418451    1.1645452    1.2820008    1.3151764
:EIG00056:       1.4428047    1.4479169    1.5121107    1.5264611    1.5303976
:EIG00061:       1.5806006    1.5836851    1.6230071    1.6428051    1.6985078
:EIG00066:       1.7019602    1.7352371    1.8443294    1.8523352    1.8579943
:EIG00071:       1.8634012    1.8971603    1.9025270    1.9885167    2.0625898
:EIG00076:       2.1964116
       ********************************************************

:KPT   :      NUMBER OF K-POINTS:   396
       Insulator, EF-inconsistency corrected
:GAP (global)   :  0.027585 Ry =     0.375 eV (accurate value if proper k-mesh)
         Bandranges (emin - emax) and occupancy:
:BAN00034:  34    0.240451    0.486033  2.00000000
:BAN00035:  35    0.365287    0.549569  2.00000000
:BAN00036:  36    0.369167    0.550173  2.00000000
:BAN00037:  37    0.436993    0.614598  2.00000000
:BAN00038:  38    0.447888    0.622755  2.00000000
:BAN00039:  39    0.475519    0.642627  2.00000000
:BAN00040:  40    0.475519    0.642686  2.00000000
:BAN00041:  41    0.595943    0.675703  2.00000000
:BAN00042:  42    0.596579    0.699496  2.00000000
:BAN00043:  43    0.627363    0.711898  2.00000000
:BAN00044:  44    0.627363    0.714552  2.00000000
:BAN00045:  45    0.742136    0.898495  0.00000000
:BAN00046:  46    0.755277    0.899657  0.00000000
:BAN00047:  47    0.787122    0.995755  0.00000000
:BAN00048:  48    0.787122    0.995755  0.00000000
:BAN00049:  49    0.852647    1.017025  0.00000000
        Energy to separate low and high energystates:    0.11806


:NOE  : NUMBER OF ELECTRONS          =   88.000

:FER  : F E R M I - ENERGY(TETRAH.M.)=   0.7145515570
:GMA  : POTENTIAL AND CHARGE CUT-OFF  12.00 Ry**.5

:POS001: ATOM   -1 X,Y,Z = 0.50000 0.50000 0.50000  MULT= 2  ZZ= 26.000  Fe1       

       LMMAX 16
       LM=   0 0  2 0  2 2 -2 2  4 0  4 2 -4 2  4 4 -4 4  6 0  6 2 -6 2  6 4 -6 4  6 6 -6 6

:CHA001: TOTAL VALENCE CHARGE INSIDE SPHERE   1 =  12.2667    (RMT=  2.2700 )
:PCS001: PARTIAL CHARGES SPHERE =  1 S,P,D,F,PX,PY,PZ,D-Z2,D-X2Y2,D-XY,D-XZ,D-YZ 
:QTL001: 0.3391 6.4315 5.4629 0.0266 2.1544 2.1539 2.1233 0.7736 1.1632 1.1000 1.0886 1.3375
        Q-s-low E-s-low   Q-p-low E-p-low   Q-d-low E-d-low   Q-f-low E-f-low
:EPL001:  0.0961 -0.2175    6.0606 -3.0573    0.0849 -0.1406    0.0056 -0.3867
        Q-s-hi  E-s-hi    Q-p-hi  E-p-hi    Q-d-hi  E-d-hi    Q-f-hi  E-f-hi 
:EPH001:  0.2431  0.3416    0.3709  0.4671    5.3781  0.5936    0.0210  0.4922

                      QXX         QXY         QYY         QZZ       UP TO R
:VZZ001:            -0.40299    -3.88638   -10.24435    10.64734       2.270

:POS002: ATOM   -2 X,Y,Z = 0.67630 0.86240 0.50000  MULT= 4  ZZ= 33.000  As1       

       LMMAX 28
       LM=   0 0  1 1 -1 1  2 0  2 2 -2 2  3 1 -3 1  3 3 -3 3  4 0  4 2 -4 2  4 4 -4 4  5 1 -5 1
         5 3 -5 3  5 5 -5 5  6 0  6 2 -6 2  6 4 -6 4  6 6 -6 6

:CHA002: TOTAL VALENCE CHARGE INSIDE SPHERE   2 =  13.0053    (RMT=  2.1600 )
:PCS002: PARTIAL CHARGES SPHERE =  2 S,P,D,F,PX,PY,PZ,D-Z2,D-X2Y2,D-XY,D-XZ,D-YZ 
:QTL002: 1.2671 1.650710.0680 0.0159 0.5633 0.5840 0.5034 2.0163 2.0115 2.0218 2.0081 2.0104
        Q-s-low E-s-low   Q-p-low E-p-low   Q-d-low E-d-low   Q-f-low E-f-low
:EPL002:  1.1437 -0.1627    0.0547 -0.1833    9.9676 -1.9296    0.0013 -0.6668
        Q-s-hi  E-s-hi    Q-p-hi  E-p-hi    Q-d-hi  E-d-hi    Q-f-hi  E-f-hi 
:EPH002:  0.1234  0.4066    1.5960  0.4421    0.1004  0.5472    0.0146  0.5692

                      QXX         QXY         QYY         QZZ       UP TO R
:VZZ002:            -2.48899   -12.54572    -8.18596    10.67495       2.160

:CHA  : TOTAL VALENCE CHARGE INSIDE UNIT CELL =      88.000000

:SUM  : SUM OF EIGENVALUES =        -101.680053627


        1.ATOM      Fe1                   5 CORE STATES
:1S 001: 1S                -512.966312976 Ry
:2S 001: 2S                 -58.855339986 Ry
:2PP001: 2P*                -50.561004814 Ry
:2P 001: 2P                 -49.643309082 Ry
:3S 001: 3S                  -5.580573476 Ry

        2.ATOM      As1                   7 CORE STATES
       CORE-FORCE in mRy/a.u. = |F|      Fx             Fy             Fz
:FCO002:   2.ATOM    202.104480121055    200.040811773194     28.807889720065      0.000000000000

:1S 002: 1S                -860.029187203 Ry
:2S 002: 2S                -108.161007257 Ry
:2PP002: 2P*                -96.517626242 Ry
:2P 002: 2P                 -93.830344143 Ry
:3S 002: 3S                 -12.922896390 Ry
:3PP002: 3P*                 -9.012395691 Ry
:3P 002: 3P                  -8.643578857 Ry
:CINT001 Core Integral Atom   1   11.998192
:CINT002 Core Integral Atom   2   17.999373

       DENSITY AT NUCLEUS
        JATOM        VALENCE       SEMI-CORE          CORE           TOTAL
:RTO001:   1        6.247769        0.000000    15301.408841    15307.656610
:RTO002:   2       43.200334        0.000000    36569.869507    36613.069841
     
       CHARGES OF NEW CHARGE DENSITY
:NTO   : INTERSTITIAL CHARGE =    11.445391
:NPC   : PW Pseudocharge     =    20.222307
:NTO001: CHARGE SPHERE  1    =    24.264905
:NTO002: CHARGE SPHERE  2    =    31.004664

:NEC01: NUCLEAR AND ELECTRONIC CHARGE    184.00000   183.99386
     
       CHARGES OF OLD CHARGE DENSITY
:OTO   : INTERSTITIAL CHARGE =    10.292819
:OPC   : PW Pseudocharge     =    21.479152
:OTO001: CHARGE SPHERE  1    =    25.098019
:OTO002: CHARGE SPHERE  2    =    30.877786

:NEC02: NUCLEAR AND ELECTRONIC CHARGE    184.00000   184.00000
     
       CONVERGENCE TEST
:DTO001: DIFFERENCE IN SPHERE  1 =  1.4341343
:DTO002: DIFFERENCE IN SPHERE  2 =  0.1127759

:DIS  :  CHARGE DISTANCE       ( 1.4341343 for atom    1 spin 1)      0.5532287
 PW Mixed is          458
 
******************************************************
* MULTISECANT MIXING VER9 RELEASE 10.4.0              *
* Slow Mode, cautious                                *
* Fixed density scale                                *
* Regularization       1.000E-04                     *
* Step Trust Radius    0.75000                       *
* Trust Upper Limit    2.000E+00                     *
* Max Number of Memory Steps   12                    *
******************************************************
 
:PWTMP   3.5034E+02  5.6146E+02  6.1719E+02
:PLANE:  PW TOTAL      4.1082 DISTAN   5.88E-01  1.43E+01 %
:CHARG:  CLM/ATOM    381.2308 DISTAN   1.16E+00  3.05E-01 %
INFO: Reducing dbase  1.00000E-02 1.43413E+00 8.35036E-03
 
Step History
        DMIX         DMIXT        Red     Pred      Trust     Lambda    MagRel    MagAbs     Beta
  1   3.5000E-02   3.5000E-02 -1.00E+00  1.00E+00 -1.00E+01  1.00E+00  3.50E-02  3.50E-02  1.00E+00
  2   1.6115E-02   1.6115E-02 -1.00E+00  1.00E+00 -1.00E+01  1.00E+00  1.61E-02  5.22E-02  1.00E+00
:JACOBIANS    4.549E-01   4.250E-03
  
:TRUST:  Step 3.02E-02  Charge 7.50E-02 (e) CTO  2.50E-01 (e) PW  3.50E-01 (e)
:DIRM :  MEMORY  1/12 SCALE   1.000
:MIX  :   PRATT  REGULARIZATION:  1.00E-04 GREED: 0.03025  Expand 1.88  0.0302 PW             
     
       CHARGES OF MIXED CHARGE DENSITY
:CTO   : INTERSTITIAL CHARGE =    10.296322
:CPC   : PW Pseudocharge     =    20.887282
:CTO001: CHARGE SPHERE  1    =    25.095356
:CTO002: CHARGE SPHERE  2    =    30.878242

:NEC03: NUCLEAR AND ELECTRONIC CHARGE    184.00000   184.00000

PW CHANGE     H    K    L      Current       Change    Residue
:PTO001:      0    0    0  5.05253303E-02 -9.533E-04 -1.414E-04
:PTO004:     -1   -1    0 -4.58591997E-03 -1.144E-03  1.777E-03
:PTO005:      0   -2    0  1.37472399E-03 -6.268E-04 -1.123E-03
:PTO007:     -2    0    0 -9.21469235E-03 -2.292E-04 -9.551E-04
:PTO008:     -1   -2    0 -3.74851428E-02  1.419E-03  3.226E-03
:PTO009:      0   -1   -1 -1.97325265E-02 -3.687E-04 -7.424E-04
:PTO010:     -1    0   -1  2.45174887E-02 -2.092E-03 -2.899E-03
:PTO011:     -2   -1    0  2.13355849E-02 -9.455E-04 -1.707E-03
:PTO012:     -1   -1   -1  4.26703201E-02 -2.077E-03 -3.680E-03
:PTO015:     -2   -2    0  2.69306749E-03 -1.261E-03 -4.823E-03
:PTO017:     -1   -2   -1 -1.00733944E-03 -2.001E-03 -7.609E-03
:PTO018:     -1   -3    0  4.91155582E-03 -1.555E-03 -6.207E-03

:ENE  : ********** TOTAL ENERGY IN Ry =       -23180.21242040

       TOTAL FORCE IN mRy/a.u. = |F|     Fx             Fy             Fz     with/without FOR in case.in2
:FOR001:   1.ATOM          0.000          0.000          0.000          0.000 partial forces
:FOR002:   2.ATOM        156.641       -156.327         -9.915          0.000 partial forces
       TOTAL FORCE WITH RESPECT TO GLOBAL CARTESIAN COORDINATES:
:FCA001:   1.ATOM                         0.000          0.000          0.000 partial forces
:FCA002:   2.ATOM                      -156.327         -9.915          0.000 partial forces
       TOTAL FORCE WITH RESPECT TO THE GLOBAL COORDINATE SYSTEM:
:FGL001:   1.ATOM                 0.000000000     0.000000000     0.000000000 partial forces
:FGL002:   2.ATOM              -156.327321133    -9.915439899     0.000000000 partial forces
 Flat Integration
 New Mode for Coulomb Integral
 Consistent 3/8+Simpson combinations
 Extension of core to zero
 LDM version in phi
 Fifth-order quadrature in outwin


            ---------
:ITE003:  3. ITERATION
            ---------

:NATO :    2 INDEPENDENT AND    6 TOTAL ATOMS IN UNITCELL
       SUBSTANCE: blebleble                                                   

       LATTICE                      = P   
:POT  : POTENTIAL OPTION EX_PBE EC_PBE VX_PBE VC_PBE
:LAT  : LATTICE CONSTANTS= 10.01782 11.31152  5.44657    1.571    1.571    1.571
:VOL  : UNIT CELL VOLUME =     617.18753
       MODE OF CALCULATION IS       = RELA
       NON-SPINPOLARIZED CALCULATION
:IFFT  : FFT-parameters:   80   90   48 Factor: 2.00


   CONVERGENCE PARAMETER FOR PSEUDOCHARGE: NCON=  9
   MAXIMAL VALUE OF RMT(JATOM)*ABSK(NKK) : RK  =27.23101


:VKCOUL :  VK-COUL convergence: 0.323E-07
       ATOMNUMBER=  1 Fe1        VCOUL-ZERO =  0.46891E+00
:EFG001:                        EFG         =    -0.21342   *10**21  V / m**2
                               V20  TOT/SRF=     0.12865    -0.07781
                               V22  TOT/SRF=     0.09494     0.01365
                               V22M TOT/SRF=    -0.10171    -0.05796
                               V21  TOT/SRF=     0.00000     0.00000
                               V21M TOT/SRF=     0.00000     0.00000

              0.02066   -0.10171    0.00000        0.06486    0.00000    0.00000
             -0.10171   -0.16922    0.00000        0.00000   -0.21342    0.00000
              0.00000    0.00000    0.14855        0.00000    0.00000    0.14855

         MAIN DIRECTIONS OF THE EFG   1.0000  0.4345  0.0000
                                     -0.4345  1.0000  0.0000
                                      0.0000  0.0000  1.0000
:ANG001:  ANGLE WITH OLD X-AXIS =        23.5

:ETA001:                         ASYMM. ETA =     0.39215


       ATOMNUMBER=  2 As1        VCOUL-ZERO =  0.37289E+00
:EFG002:                        EFG         =    -0.22944   *10**21  V / m**2
                               V20  TOT/SRF=     0.11472    -0.06287
                               V22  TOT/SRF=     0.06616     0.01942
                               V22M TOT/SRF=    -0.14920     0.11014
                               V21  TOT/SRF=     0.00000     0.00000
                               V21M TOT/SRF=     0.00000     0.00000

             -0.00007   -0.14920    0.00000        0.09697    0.00000    0.00000
             -0.14920   -0.13239    0.00000        0.00000   -0.22944    0.00000
              0.00000    0.00000    0.13247        0.00000    0.00000    0.13247

         MAIN DIRECTIONS OF THE EFG   1.0000  0.6505  0.0000
                                     -0.6505  1.0000  0.0000
                                      0.0000  0.0000  1.0000
:ANG002:  ANGLE WITH OLD X-AXIS =        33.0

:ETA002:                         ASYMM. ETA =     0.15469


     HELLMANN-FEYNMAN-FORCE IN mRy/a.u. = |F|  Fx       Fy             Fz
:FHF001:   1.ATOM      0.000000000000      0.000000000000      0.000000000000      0.000000000000

     HELLMANN-FEYNMAN-FORCE IN mRy/a.u. = |F|  Fx       Fy             Fz
:FHF002:   2.ATOM    359.041747219286   -356.735454466753    -40.629936902198      0.000000000000

:FIT001: LUSE= 13 SIGMA OF V-XC FIT FOR ATOM  1  0.6597779E-02
:FIT001: LUSE= 13 SIGMA OF V-XC FIT FOR ATOM  1  0.6597779E-02
:FIT002: LUSE= 13 SIGMA OF V-XC FIT FOR ATOM  2  0.1632622E-02
:FIT002: LUSE= 13 SIGMA OF V-XC FIT FOR ATOM  2  0.1632622E-02
:DEN  : DENSITY INTEGRAL  =         -9836.45873876   (Ry)
       ELS_POTENTIAL_AT Z=0 and Z=0.5:  -0.28546  -0.28546
       ELS_POTENTIAL_AT Y=0 and Y=0.5:  -0.04200  -0.04200
:VZERO:v0,v0c,v0x  -1.06917  -0.28546  -0.78371 v5,v5c,v5x  -1.06917  -0.28546  -0.78371
:VZERY:v0,v0c,v0x  -0.84411  -0.04200  -0.80211 v5,v5c,v5x  -0.84411  -0.04200  -0.80211
:VZERX:v0,v0c,v0x  -0.58406   0.16195  -0.74601 v5,v5c,v5x  -0.58406   0.16195  -0.74601
:LMAX-WF:   10   Non-Spherical LMAX:   4

          ATOMIC SPHERE DEPENDENT PARAMETERS FOR ATOM  Fe1       
:e__0001: OVERALL ENERGY PARAMETER IS    0.5097
          OVERALL BASIS SET ON ATOM IS LAPW
:E1_0001: E( 1)=    0.5097
             APW+lo
:E1_0001: E( 1)=   -3.1167   E(BOTTOM)=   -3.180   E(TOP)=   -3.053  1  2   161
             LOCAL ORBITAL
:E2_0001: E( 2)=    0.6557   E(BOTTOM)=    0.330   E(TOP)=    0.981  0  1   133
             APW+lo
:E0_0001: E( 0)=    0.5097
             APW+lo

          ATOMIC SPHERE DEPENDENT PARAMETERS FOR ATOM  As1       
:e__0002: OVERALL ENERGY PARAMETER IS    0.5097
          OVERALL BASIS SET ON ATOM IS LAPW
:E2_0002: E( 2)=    0.5097
             APW+lo
:E2_0002: E( 2)=   -1.9449   E(BOTTOM)=   -1.997   E(TOP)=   -1.893  0  1   172
             LOCAL ORBITAL
:E0_0002: E( 0)=    0.9097
             APW+lo
:E0_0002: E( 0)=   -0.7600   E(BOTTOM)=   -1.042   E(TOP)= -200.000  3 -1   154
             LOCAL ORBITAL
:E1_0002: E( 1)=    0.5097
             APW+lo

       K=   0.00000   0.00000   0.00000            1
:RKM  : MATRIX SIZE   437LOs:  84  RKM= 6.97  WEIGHT= 1.00  PGR:    
       EIGENVALUES ARE:
:EIG00001:      -3.1061591   -3.1061358   -3.1024519   -3.1024326   -3.0989294
:EIG00006:      -3.0988751   -1.9357130   -1.9354577   -1.9338691   -1.9338194
:EIG00011:      -1.9337331   -1.9335056   -1.9332774   -1.9328965   -1.9323463
:EIG00016:      -1.9321165   -1.9319530   -1.9318585   -1.9306690   -1.9305576
:EIG00021:      -1.9291877   -1.9289876   -1.9275448   -1.9272597   -1.9270739
:EIG00026:      -1.9268153   -0.4176002   -0.2223366   -0.1619702   -0.1268147
:EIG00031:       0.1718080    0.2481342    0.3326212    0.3925742    0.3962155
:EIG00036:       0.4677916    0.5900942    0.6195355    0.6357855    0.6366790
:EIG00041:       0.6608510    0.6959184    0.7046868    0.7106663    0.8261723
:EIG00046:       0.8328992    0.9467874    0.9915984    0.9989003    1.0437127
 
:EIG00051:       1.0970547    1.1404826    1.1632293    1.2810289    1.3136767
:EIG00056:       1.4422047    1.4471665    1.5114252    1.5259479    1.5291058
:EIG00061:       1.5799609    1.5825962    1.6222322    1.6418110    1.6980247
:EIG00066:       1.7008120    1.7340228    1.8433605    1.8514427    1.8570519
:EIG00071:       1.8626483    1.8963235    1.9017040    1.9870693    2.0618729
:EIG00076:       2.1956854
       ********************************************************

:KPT   :      NUMBER OF K-POINTS:   396
       Insulator, EF-inconsistency corrected
:GAP (global)   :  0.028212 Ry =     0.384 eV (accurate value if proper k-mesh)
         Bandranges (emin - emax) and occupancy:
:BAN00034:  34    0.239633    0.484076  2.00000000
:BAN00035:  35    0.364209    0.547096  2.00000000
:BAN00036:  36    0.368317    0.548625  2.00000000
:BAN00037:  37    0.435533    0.611838  2.00000000
:BAN00038:  38    0.446083    0.619536  2.00000000
:BAN00039:  39    0.474806    0.639280  2.00000000
:BAN00040:  40    0.474806    0.639327  2.00000000
:BAN00041:  41    0.593154    0.672912  2.00000000
:BAN00042:  42    0.593925    0.695918  2.00000000
:BAN00043:  43    0.624320    0.708024  2.00000000
:BAN00044:  44    0.624320    0.710666  2.00000000
:BAN00045:  45    0.738878    0.897011  0.00000000
:BAN00046:  46    0.751954    0.898064  0.00000000
:BAN00047:  47    0.783633    0.994014  0.00000000
:BAN00048:  48    0.783633    0.994014  0.00000000
:BAN00049:  49    0.849979    1.015024  0.00000000
        Energy to separate low and high energystates:    0.11735


:NOE  : NUMBER OF ELECTRONS          =   88.000

:FER  : F E R M I - ENERGY(TETRAH.M.)=   0.7106662798
:GMA  : POTENTIAL AND CHARGE CUT-OFF  12.00 Ry**.5

:POS001: ATOM   -1 X,Y,Z = 0.50000 0.50000 0.50000  MULT= 2  ZZ= 26.000  Fe1       

       LMMAX 16
       LM=   0 0  2 0  2 2 -2 2  4 0  4 2 -4 2  4 4 -4 4  6 0  6 2 -6 2  6 4 -6 4  6 6 -6 6

:CHA001: TOTAL VALENCE CHARGE INSIDE SPHERE   1 =  12.2947    (RMT=  2.2700 )
:PCS001: PARTIAL CHARGES SPHERE =  1 S,P,D,F,PX,PY,PZ,D-Z2,D-X2Y2,D-XY,D-XZ,D-YZ 
:QTL001: 0.3393 6.4314 5.4910 0.0265 2.1544 2.1539 2.1231 0.7781 1.1698 1.1054 1.0947 1.3430
        Q-s-low E-s-low   Q-p-low E-p-low   Q-d-low E-d-low   Q-f-low E-f-low
:EPL001:  0.0962 -0.2181    6.0608 -3.0620    0.0853 -0.1410    0.0056 -0.3874
        Q-s-hi  E-s-hi    Q-p-hi  E-p-hi    Q-d-hi  E-d-hi    Q-f-hi  E-f-hi 
:EPH001:  0.2431  0.3404    0.3706  0.4658    5.4057  0.5906    0.0209  0.4905

                      QXX         QXY         QYY         QZZ       UP TO R
:VZZ001:            -0.43993    -3.87308   -10.29618    10.73611       2.270

:POS002: ATOM   -2 X,Y,Z = 0.67630 0.86240 0.50000  MULT= 4  ZZ= 33.000  As1       

       LMMAX 28
       LM=   0 0  1 1 -1 1  2 0  2 2 -2 2  3 1 -3 1  3 3 -3 3  4 0  4 2 -4 2  4 4 -4 4  5 1 -5 1
         5 3 -5 3  5 5 -5 5  6 0  6 2 -6 2  6 4 -6 4  6 6 -6 6

:CHA002: TOTAL VALENCE CHARGE INSIDE SPHERE   2 =  12.9980    (RMT=  2.1600 )
:PCS002: PARTIAL CHARGES SPHERE =  2 S,P,D,F,PX,PY,PZ,D-Z2,D-X2Y2,D-XY,D-XZ,D-YZ 
:QTL002: 1.2665 1.644710.0675 0.0159 0.5617 0.5823 0.5008 2.0162 2.0114 2.0216 2.0080 2.0102
        Q-s-low E-s-low   Q-p-low E-p-low   Q-d-low E-d-low   Q-f-low E-f-low
:EPL002:  1.1435 -0.1633    0.0547 -0.1838    9.9676 -1.9301    0.0013 -0.6667
        Q-s-hi  E-s-hi    Q-p-hi  E-p-hi    Q-d-hi  E-d-hi    Q-f-hi  E-f-hi 
:EPH002:  0.1230  0.4051    1.5901  0.4406    0.0999  0.5447    0.0146  0.5666

                      QXX         QXY         QYY         QZZ       UP TO R
:VZZ002:            -2.57513   -12.51001    -8.24287    10.81800       2.160

:CHA  : TOTAL VALENCE CHARGE INSIDE UNIT CELL =      88.000000

:SUM  : SUM OF EIGENVALUES =        -101.816512921


        1.ATOM      Fe1                   5 CORE STATES
:1S 001: 1S                -512.973680103 Ry
:2S 001: 2S                 -58.862487385 Ry
:2PP001: 2P*                -50.568214440 Ry
:2P 001: 2P                 -49.650512525 Ry
:3S 001: 3S                  -5.585534097 Ry

        2.ATOM      As1                   7 CORE STATES
       CORE-FORCE in mRy/a.u. = |F|      Fx             Fy             Fz
:FCO002:   2.ATOM    202.369141116977    200.081512939129     30.342337688646      0.000000000000

:1S 002: 1S                -860.029720586 Ry
:2S 002: 2S                -108.161552016 Ry
:2PP002: 2P*                -96.518169743 Ry
:2P 002: 2P                 -93.830887798 Ry
:3S 002: 3S                 -12.923437648 Ry
:3PP002: 3P*                 -9.012936350 Ry
:3P 002: 3P                  -8.644119321 Ry
:CINT001 Core Integral Atom   1   11.998196
:CINT002 Core Integral Atom   2   17.999373

       DENSITY AT NUCLEUS
        JATOM        VALENCE       SEMI-CORE          CORE           TOTAL
:RTO001:   1        6.248358        0.000000    15301.458933    15307.707291
:RTO002:   2       43.171027        0.000000    36569.869628    36613.040655
     
       CHARGES OF NEW CHARGE DENSITY
:NTO   : INTERSTITIAL CHARGE =    11.418456
:NPC   : PW Pseudocharge     =    20.196250
:NTO001: CHARGE SPHERE  1    =    24.292865
:NTO002: CHARGE SPHERE  2    =    30.997419

:NEC01: NUCLEAR AND ELECTRONIC CHARGE    184.00000   183.99386
     
       CHARGES OF OLD CHARGE DENSITY
:OTO   : INTERSTITIAL CHARGE =    10.296322
:OPC   : PW Pseudocharge     =    20.887282
:OTO001: CHARGE SPHERE  1    =    25.095356
:OTO002: CHARGE SPHERE  2    =    30.878242

:NEC02: NUCLEAR AND ELECTRONIC CHARGE    184.00000   184.00000
     
       CONVERGENCE TEST
:DTO001: DIFFERENCE IN SPHERE  1 =  1.3922099
:DTO002: DIFFERENCE IN SPHERE  2 =  0.1098115

:DIS  :  CHARGE DISTANCE       ( 1.3922099 for atom    1 spin 1)      0.5372776
 PW Mixed is          458
 
******************************************************
* MULTISECANT MIXING VER9 RELEASE 10.4.0              *
* Slow Mode, cautious                                *
* Fixed density scale                                *
* Regularization       1.000E-04                     *
* Step Trust Radius    0.75000                       *
* Trust Upper Limit    2.000E+00                     *
* Max Number of Memory Steps   12                    *
******************************************************
 
:PWTMP   3.5034E+02  5.6146E+02  6.1719E+02
:PLANE:  PW TOTAL      4.0078 DISTAN   5.09E-01  1.27E+01 %
:CHARG:  CLM/ATOM    381.2306 DISTAN   1.14E+00  2.99E-01 %
INFO: Reducing dbase  1.00000E-02 1.39221E+00 8.47515E-03
 
Step History
        DMIX         DMIXT        Red     Pred      Trust     Lambda    MagRel    MagAbs     Beta
  1   3.5000E-02   3.5000E-02 -1.00E+00  1.00E+00 -1.00E+01  1.00E+00  3.50E-02  3.50E-02  1.00E+00
  2   1.6115E-02   1.6115E-02  7.41E-01  1.00E+00 -1.00E+01  1.00E+00  1.61E-02  5.22E-02  1.00E+00
  3   3.0250E-02   3.0250E-02 -1.00E+00  1.00E+00 -1.00E+01  1.00E+00  3.02E-02  7.27E-02  1.00E+00
:JACOBIANS    7.124E-01   4.207E-03
  
:NORMS:  1/Froebius, Min, Max, Used   0.9628E+00  0.4877E+00  0.9754E+00  0.9630E+00
:INFO :  Number of Memory Steps    2 Skipping    0
:INFO :  SLambda=    1.0624317693  Max    1.0624317693
:PREDicted Charge, CTotal, PW Trust    6.021E-03   7.920E-03   7.552E-01
:PREDicted DMix, Beta, BLim   3.2099E-02  1.9701E+00  2.5511E-01

Eigenvalues, unscaled except for SY+YY
   #     SY Real        SY Imag          SS             YY         SY+YY Real      SY+YY Imag
   1  -6.206147E-14   0.000000E+00   1.853887E+00   1.998928E+00   1.097824E-03   0.000000E+00
   2   1.860835E+00   0.000000E+00   0.000000E+00   1.072329E-03   3.975913E+00   0.000000E+00
 
:INFO :  Singular value  3.976E+00 Weight  1.000E+00 Projection -2.723E-01
:INFO :  Singular value  1.098E-03 Weight  9.679E-01 Projection -3.285E+01
:RANK :  ACTIVE   1.97/2  =  98.40 % ; YY RANK   1.97/2  =  98.32 %
 
Increasing PW by   1.125
:BLIM :  VZERO Control Off
:TRUST:  Step 1.53E-01  Charge 7.50E-02 (e) CTO  2.50E-01 (e) PW  4.33E-01 (e)
:DIRM :  MEMORY  2/12 SCALE   1.000 RED  0.97 PRED  1.00 NEXT  0.85 
:TRAVE:  Charge 2.29E-02 (e) CTO  3.32E-02 (e) PW  3.88E-01 (e)
:DIRP :  |MSR1|= 2.642E-01 |PRATT|= 5.092E-01 ANGLE=  77.7 DEGREES
:DIRQ :  |MSR1|= 6.394E-02 |PRATT|= 2.277E+00 ANGLE=  26.3 DEGREES
:DIRT :  |MSR1|= 2.718E-01 |PRATT|= 2.333E+00 ANGLE=  75.5 DEGREES
:MIX  :   MSE1   REGULARIZATION:  2.00E-04 GREED: 0.03000  Newton 1.00  0.1165                
     
       CHARGES OF MIXED CHARGE DENSITY
:CTO   : INTERSTITIAL CHARGE =    10.329496
:CPC   : PW Pseudocharge     =    20.170930
:CTO001: CHARGE SPHERE  1    =    25.072482
:CTO002: CHARGE SPHERE  2    =    30.881385

:NEC03: NUCLEAR AND ELECTRONIC CHARGE    184.00000   184.00000

PW CHANGE     H    K    L      Current       Change    Residue
:PTO001:      0    0    0  4.94184089E-02 -1.107E-03  7.260E-04
:PTO004:     -1   -1    0 -5.83902222E-03 -1.253E-03  2.983E-03
:PTO005:      0   -2    0  6.29459378E-04 -7.453E-04 -4.700E-04
:PTO007:     -2    0    0 -9.50072282E-03 -2.860E-04 -6.902E-04
:PTO008:     -1   -2    0 -3.57723098E-02  1.713E-03  1.857E-03
:PTO009:      0   -1   -1 -2.01693192E-02 -4.368E-04 -3.204E-04
:PTO010:     -1    0   -1  2.20550400E-02 -2.462E-03 -7.942E-04
:PTO011:     -2   -1    0  2.02095458E-02 -1.126E-03 -7.911E-04
:PTO012:     -1   -1   -1  4.01955860E-02 -2.475E-03 -1.643E-03
:PTO015:     -2   -2    0  1.12334987E-03 -1.570E-03 -3.544E-03
:PTO017:     -1   -2   -1 -3.49902205E-03 -2.492E-03 -5.584E-03
:PTO018:     -1   -3    0  2.96870560E-03 -1.943E-03 -4.647E-03

:ENE  : ********** TOTAL ENERGY IN Ry =       -23180.20566063

       TOTAL FORCE IN mRy/a.u. = |F|     Fx             Fy             Fz     with/without FOR in case.in2
:FOR001:   1.ATOM          0.000          0.000          0.000          0.000 partial forces
:FOR002:   2.ATOM        156.991       -156.654        -10.288          0.000 partial forces
       TOTAL FORCE WITH RESPECT TO GLOBAL CARTESIAN COORDINATES:
:FCA001:   1.ATOM                         0.000          0.000          0.000 partial forces
:FCA002:   2.ATOM                      -156.654        -10.288          0.000 partial forces
       TOTAL FORCE WITH RESPECT TO THE GLOBAL COORDINATE SYSTEM:
:FGL001:   1.ATOM                 0.000000000     0.000000000     0.000000000 partial forces
:FGL002:   2.ATOM              -156.653941528   -10.287599214     0.000000000 partial forces
 Flat Integration
 New Mode for Coulomb Integral
 Consistent 3/8+Simpson combinations
 Extension of core to zero
 LDM version in phi
 Fifth-order quadrature in outwin


            ---------
:ITE004:  4. ITERATION
            ---------

:NATO :    2 INDEPENDENT AND    6 TOTAL ATOMS IN UNITCELL
       SUBSTANCE: blebleble                                                   

       LATTICE                      = P   
:POT  : POTENTIAL OPTION EX_PBE EC_PBE VX_PBE VC_PBE
:LAT  : LATTICE CONSTANTS= 10.01782 11.31152  5.44657    1.571    1.571    1.571
:VOL  : UNIT CELL VOLUME =     617.18753
       MODE OF CALCULATION IS       = RELA
       NON-SPINPOLARIZED CALCULATION
:IFFT  : FFT-parameters:   80   90   48 Factor: 2.00


   CONVERGENCE PARAMETER FOR PSEUDOCHARGE: NCON=  9
   MAXIMAL VALUE OF RMT(JATOM)*ABSK(NKK) : RK  =27.23101


:VKCOUL :  VK-COUL convergence: 0.323E-07
       ATOMNUMBER=  1 Fe1        VCOUL-ZERO =  0.46669E+00
:EFG001:                        EFG         =    -0.71775   *10**21  V / m**2
                               V20  TOT/SRF=     0.47166    -0.07388
                               V22  TOT/SRF=     0.32706     0.01428
                               V22M TOT/SRF=    -0.30240    -0.05820
                               V21  TOT/SRF=     0.00000     0.00000
                               V21M TOT/SRF=     0.00000     0.00000

              0.05475   -0.30240    0.00000        0.17313    0.00000    0.00000
             -0.30240   -0.59938    0.00000        0.00000   -0.71775    0.00000
              0.00000    0.00000    0.54462        0.00000    0.00000    0.54462

         MAIN DIRECTIONS OF THE EFG   1.0000  0.3915  0.0000
                                     -0.3915  1.0000  0.0000
                                      0.0000  0.0000  1.0000
:ANG001:  ANGLE WITH OLD X-AXIS =        21.4

:ETA001:                         ASYMM. ETA =     0.51759


       ATOMNUMBER=  2 As1        VCOUL-ZERO =  0.37388E+00
:EFG002:                        EFG         =    -0.86598   *10**21  V / m**2
                               V20  TOT/SRF=     0.43761    -0.06147
                               V22  TOT/SRF=     0.17122     0.02001
                               V22M TOT/SRF=    -0.58894     0.11007
                               V21  TOT/SRF=     0.00000     0.00000
                               V21M TOT/SRF=     0.00000     0.00000

             -0.08143   -0.58894    0.00000        0.36067    0.00000    0.00000
             -0.58894   -0.42388    0.00000        0.00000   -0.86598    0.00000
              0.00000    0.00000    0.50531        0.00000    0.00000    0.50531

         MAIN DIRECTIONS OF THE EFG   1.0000  0.7507  0.0000
                                     -0.7507  1.0000  0.0000
                                      0.0000  0.0000  1.0000
:ANG002:  ANGLE WITH OLD X-AXIS =        36.9

:ETA002:                         ASYMM. ETA =     0.16703


     HELLMANN-FEYNMAN-FORCE IN mRy/a.u. = |F|  Fx       Fy             Fz
:FHF001:   1.ATOM      0.000000000000      0.000000000000      0.000000000000      0.000000000000

     HELLMANN-FEYNMAN-FORCE IN mRy/a.u. = |F|  Fx       Fy             Fz
:FHF002:   2.ATOM    355.304530022035   -348.576857936765    -68.814846981675      0.000000000000

:FIT001: LUSE= 13 SIGMA OF V-XC FIT FOR ATOM  1  0.6747371E-02
:FIT001: LUSE= 13 SIGMA OF V-XC FIT FOR ATOM  1  0.6747371E-02
:FIT002: LUSE= 13 SIGMA OF V-XC FIT FOR ATOM  2  0.1536977E-02
:FIT002: LUSE= 13 SIGMA OF V-XC FIT FOR ATOM  2  0.1536977E-02
:DEN  : DENSITY INTEGRAL  =         -9834.91447932   (Ry)
       ELS_POTENTIAL_AT Z=0 and Z=0.5:  -0.28362  -0.28362
       ELS_POTENTIAL_AT Y=0 and Y=0.5:  -0.04222  -0.04222
:VZERO:v0,v0c,v0x  -1.05754  -0.28362  -0.77392 v5,v5c,v5x  -1.05754  -0.28362  -0.77392
:VZERY:v0,v0c,v0x  -0.83003  -0.04222  -0.78781 v5,v5c,v5x  -0.83003  -0.04222  -0.78781
:VZERX:v0,v0c,v0x  -0.57141   0.16169  -0.73311 v5,v5c,v5x  -0.57141   0.16169  -0.73311
:LMAX-WF:   10   Non-Spherical LMAX:   4

          ATOMIC SPHERE DEPENDENT PARAMETERS FOR ATOM  Fe1       
:e__0001: OVERALL ENERGY PARAMETER IS    0.5103
          OVERALL BASIS SET ON ATOM IS LAPW
:E1_0001: E( 1)=    0.5103
             APW+lo
:E1_0001: E( 1)=   -3.1440   E(BOTTOM)=   -3.207   E(TOP)=   -3.081  1  2   155
             LOCAL ORBITAL
:E2_0001: E( 2)=    0.6329   E(BOTTOM)=    0.311   E(TOP)=    0.955  0  1   133
             APW+lo
:E0_0001: E( 0)=    0.5103
             APW+lo

          ATOMIC SPHERE DEPENDENT PARAMETERS FOR ATOM  As1       
:e__0002: OVERALL ENERGY PARAMETER IS    0.5103
          OVERALL BASIS SET ON ATOM IS LAPW
:E2_0002: E( 2)=    0.5103
             APW+lo
:E2_0002: E( 2)=   -1.9445   E(BOTTOM)=   -1.997   E(TOP)=   -1.892  0  1   169
             LOCAL ORBITAL
:E0_0002: E( 0)=    0.9103
             APW+lo
:E0_0002: E( 0)=   -0.7600   E(BOTTOM)=   -1.041   E(TOP)= -200.000  3 -1   155
             LOCAL ORBITAL
:E1_0002: E( 1)=    0.5103
             APW+lo

       K=   0.00000   0.00000   0.00000            1
:RKM  : MATRIX SIZE   437LOs:  84  RKM= 6.97  WEIGHT= 1.00  PGR:    
       EIGENVALUES ARE:
:EIG00001:      -3.1337452   -3.1337377   -3.1288560   -3.1288524   -3.1273000
:EIG00006:      -3.1272465   -1.9352367   -1.9349819   -1.9335711   -1.9334296
:EIG00011:      -1.9332983   -1.9332553   -1.9328059   -1.9324254   -1.9319559
:EIG00016:      -1.9317336   -1.9316084   -1.9314883   -1.9302035   -1.9300906
:EIG00021:      -1.9289788   -1.9287563   -1.9272699   -1.9269783   -1.9268884
:EIG00026:      -1.9266227   -0.4179532   -0.2225116   -0.1621491   -0.1271081
:EIG00031:       0.1688019    0.2455666    0.3314918    0.3880167    0.3953601
:EIG00036:       0.4586388    0.5718762    0.6015818    0.6172555    0.6178572
:EIG00041:       0.6420698    0.6761914    0.6831415    0.6889217    0.8128700
:EIG00046:       0.8257993    0.9468864    0.9915049    0.9990467    1.0317245
 
:EIG00051:       1.0955687    1.1353480    1.1583728    1.2780574    1.3075357
:EIG00056:       1.4414991    1.4456178    1.5105722    1.5241816    1.5257095
:EIG00061:       1.5784346    1.5793494    1.6206336    1.6386156    1.6967286
:EIG00066:       1.6981060    1.7297147    1.8403438    1.8485903    1.8541934
:EIG00071:       1.8613424    1.8947179    1.8995808    1.9808876    2.0611281
:EIG00076:       2.1941779
       ********************************************************

:KPT   :      NUMBER OF K-POINTS:   396
       Insulator, EF-inconsistency corrected
:GAP (global)   :  0.032115 Ry =     0.437 eV (accurate value if proper k-mesh)
         Bandranges (emin - emax) and occupancy:
:BAN00034:  34    0.237381    0.474466  2.00000000
:BAN00035:  35    0.360358    0.534989  2.00000000
:BAN00036:  36    0.365889    0.541040  2.00000000
:BAN00037:  37    0.428998    0.596625  2.00000000
:BAN00038:  38    0.437431    0.601582  2.00000000
:BAN00039:  39    0.473313    0.620399  2.00000000
:BAN00040:  40    0.473313    0.620399  2.00000000
:BAN00041:  41    0.579794    0.658065  2.00000000
:BAN00042:  42    0.579794    0.676191  2.00000000
:BAN00043:  43    0.607815    0.686307  2.00000000
:BAN00044:  44    0.607815    0.688922  2.00000000
:BAN00045:  45    0.721037    0.891073  0.00000000
:BAN00046:  46    0.733708    0.891329  0.00000000
:BAN00047:  47    0.764590    0.983576  0.00000000
:BAN00048:  48    0.764590    0.991505  0.00000000
:BAN00049:  49    0.836059    1.014206  0.00000000
        Energy to separate low and high energystates:    0.11592


:NOE  : NUMBER OF ELECTRONS          =   88.000

:FER  : F E R M I - ENERGY(TETRAH.M.)=   0.6889217347
:GMA  : POTENTIAL AND CHARGE CUT-OFF  12.00 Ry**.5

:POS001: ATOM   -1 X,Y,Z = 0.50000 0.50000 0.50000  MULT= 2  ZZ= 26.000  Fe1       

       LMMAX 16
       LM=   0 0  2 0  2 2 -2 2  4 0  4 2 -4 2  4 4 -4 4  6 0  6 2 -6 2  6 4 -6 4  6 6 -6 6

:CHA001: TOTAL VALENCE CHARGE INSIDE SPHERE   1 =  12.4744    (RMT=  2.2700 )
:PCS001: PARTIAL CHARGES SPHERE =  1 S,P,D,F,PX,PY,PZ,D-Z2,D-X2Y2,D-XY,D-XZ,D-YZ 
:QTL001: 0.3404 6.4308 5.6710 0.0259 2.1547 2.1540 2.1221 0.8088 1.2108 1.1400 1.1349 1.3765
        Q-s-low E-s-low   Q-p-low E-p-low   Q-d-low E-d-low   Q-f-low E-f-low
:EPL001:  0.0974 -0.2187    6.0618 -3.0888    0.0883 -0.1399    0.0056 -0.3882
        Q-s-hi  E-s-hi    Q-p-hi  E-p-hi    Q-d-hi  E-d-hi    Q-f-hi  E-f-hi 
:EPH001:  0.2430  0.3358    0.3690  0.4609    5.5827  0.5742    0.0202  0.4825

                      QXX         QXY         QYY         QZZ       UP TO R
:VZZ001:            -0.71802    -3.71191   -10.48307    11.20109       2.270

:POS002: ATOM   -2 X,Y,Z = 0.67630 0.86240 0.50000  MULT= 4  ZZ= 33.000  As1       

       LMMAX 28
       LM=   0 0  1 1 -1 1  2 0  2 2 -2 2  3 1 -3 1  3 3 -3 3  4 0  4 2 -4 2  4 4 -4 4  5 1 -5 1
         5 3 -5 3  5 5 -5 5  6 0  6 2 -6 2  6 4 -6 4  6 6 -6 6

:CHA002: TOTAL VALENCE CHARGE INSIDE SPHERE   2 =  12.9501    (RMT=  2.1600 )
:PCS002: PARTIAL CHARGES SPHERE =  2 S,P,D,F,PX,PY,PZ,D-Z2,D-X2Y2,D-XY,D-XZ,D-YZ 
:QTL002: 1.2616 1.605410.0641 0.0156 0.5508 0.5706 0.4839 2.0153 2.0108 2.0207 2.0077 2.0095
        Q-s-low E-s-low   Q-p-low E-p-low   Q-d-low E-d-low   Q-f-low E-f-low
:EPL002:  1.1409 -0.1638    0.0546 -0.1837    9.9676 -1.9298    0.0013 -0.6618
        Q-s-hi  E-s-hi    Q-p-hi  E-p-hi    Q-d-hi  E-d-hi    Q-f-hi  E-f-hi 
:EPH002:  0.1206  0.3990    1.5507  0.4338    0.0965  0.5316    0.0143  0.5527

                      QXX         QXY         QYY         QZZ       UP TO R
:VZZ002:            -3.12599   -12.19217    -8.58543    11.71142       2.160

:CHA  : TOTAL VALENCE CHARGE INSIDE UNIT CELL =      88.000000

:SUM  : SUM OF EIGENVALUES =        -102.393021859


        1.ATOM      Fe1                   5 CORE STATES
:1S 001: 1S                -513.014316218 Ry
:2S 001: 2S                 -58.902536316 Ry
:2PP001: 2P*                -50.608502226 Ry
:2P 001: 2P                 -49.690775445 Ry
:3S 001: 3S                  -5.614217265 Ry

        2.ATOM      As1                   7 CORE STATES
       CORE-FORCE in mRy/a.u. = |F|      Fx             Fy             Fz
:FCO002:   2.ATOM    200.752428366347    193.774305776591     52.469571332204      0.000000000000

:1S 002: 1S                -860.029917992 Ry
:2S 002: 2S                -108.161731132 Ry
:2PP002: 2P*                -96.518362363 Ry
:2P 002: 2P                 -93.831078426 Ry
:3S 002: 3S                 -12.923150139 Ry
:3PP002: 3P*                 -9.012633669 Ry
:3P 002: 3P                  -8.643804819 Ry
:CINT001 Core Integral Atom   1   11.998221
:CINT002 Core Integral Atom   2   17.999373

       DENSITY AT NUCLEUS
        JATOM        VALENCE       SEMI-CORE          CORE           TOTAL
:RTO001:   1        6.263806        0.000000    15301.736648    15308.000454
:RTO002:   2       42.949528        0.000000    36569.885982    36612.835510
     
       CHARGES OF NEW CHARGE DENSITY
:NTO   : INTERSTITIAL CHARGE =    11.250838
:NPC   : PW Pseudocharge     =    19.992660
:NTO001: CHARGE SPHERE  1    =    24.472611
:NTO002: CHARGE SPHERE  2    =    30.949464

:NEC01: NUCLEAR AND ELECTRONIC CHARGE    184.00000   183.99392
     
       CHARGES OF OLD CHARGE DENSITY
:OTO   : INTERSTITIAL CHARGE =    10.329496
:OPC   : PW Pseudocharge     =    20.170930
:OTO001: CHARGE SPHERE  1    =    25.072482
:OTO002: CHARGE SPHERE  2    =    30.881385

:NEC02: NUCLEAR AND ELECTRONIC CHARGE    184.00000   184.00000
     
       CONVERGENCE TEST
:DTO001: DIFFERENCE IN SPHERE  1 =  1.1265391
:DTO002: DIFFERENCE IN SPHERE  2 =  0.0926214

:DIS  :  CHARGE DISTANCE       ( 1.1265391 for atom    1 spin 1)      0.4372606
 PW Mixed is          458
 
******************************************************
* MULTISECANT MIXING VER9 RELEASE 10.4.0              *
* Slow Mode, cautious                                *
* Fixed density scale                                *
* Regularization       1.000E-04                     *
* Step Trust Radius    0.75000                       *
* Trust Upper Limit    2.000E+00                     *
* Max Number of Memory Steps   12                    *
******************************************************
 
:PWTMP   3.5034E+02  5.6146E+02  6.1719E+02
:PLANE:  PW TOTAL      3.9007 DISTAN   5.19E-01  1.33E+01 %
:CHARG:  CLM/ATOM    381.2290 DISTAN   9.67E-01  2.54E-01 %
INFO: Reducing dbase  1.00000E-02 1.12654E+00 9.42165E-03
 
Step History
        DMIX         DMIXT        Red     Pred      Trust     Lambda    MagRel    MagAbs     Beta
  1   3.5000E-02   3.5000E-02 -1.00E+00  1.00E+00 -1.00E+01  1.00E+00  3.50E-02  3.50E-02  1.00E+00
  2   1.6115E-02   1.6115E-02  7.41E-01  1.00E+00 -1.00E+01  1.00E+00  1.61E-02  5.22E-02  1.00E+00
  3   3.0250E-02   3.0250E-02  9.71E-01  1.00E+00 -1.00E+01  1.06E+00  3.02E-02  7.27E-02  1.00E+00
  4   3.0001E-02   3.0001E-02 -1.00E+00  8.46E-01  1.53E-01  1.00E+00  1.17E-01  2.72E-01  1.00E+00
:JACOBIANS    8.517E-01   6.698E-02
  
:NORMS:  1/Froebius, Min, Max, Used   0.7607E+00  0.4121E+00  0.9930E+00  0.7787E+00
:INFO :  Number of Memory Steps    3 Skipping    0
:INFO :  SLambda=    1.4810122910  Max    1.4810122910
:PREDicted Charge, CTotal, PW Trust    1.501E-01   2.206E-01   1.375E-01
:PREDicted DMix, Beta, BLim   1.5615E-01  1.0351E+00  2.0263E-01

Eigenvalues, unscaled except for SY+YY
   #     SY Real        SY Imag          SS             YY         SY+YY Real      SY+YY Imag
   1   1.779041E+00   0.000000E+00   1.726954E+00   2.848274E+00   5.446881E+00   0.000000E+00
   2   2.832976E-02   0.000000E+00   8.947869E-03   1.516406E-01   2.297576E-01   0.000000E+00
   3  -9.810041E-15   0.000000E+00   3.137813E-17   8.560268E-05   9.929998E-05   0.000000E+00
 
:INFO :  Singular value  5.447E+00 Weight  1.000E+00 Projection -3.184E-01
:INFO :  Singular value  2.298E-01 Weight  1.000E+00 Projection -3.975E+00
:INFO :  Singular value  9.930E-05 Weight  1.084E-01 Projection -6.626E+00
:RANK :  ACTIVE   2.11/3  =  70.28 % ; YY RANK   2.08/3  =  69.43 %
 
:BLIM :  VZERO Control Off
:TRUST:  Step 2.43E-01  Charge 8.25E-02 (e) CTO  2.50E-01 (e) PW  4.33E-01 (e)
:DTRUS:  Lambda    2.634E+00 Increment    7.276E-12 Iterations   117 DMIX    6.114E-02
:INFOA:  Angle SubSpace to MSR1     14.80
:DIRM :  MEMORY  3/12 SCALE   1.000 RED  0.86 PRED  0.85 NEXT  0.51 
:INFO :  Limited by Atoms F by Step T

:TRAVE:  Charge 5.27E-02 (e) CTO  9.38E-02 (e) PW  1.99E-01 (e)
:DIRP :  |MSR1|= 1.121E-01 |PRATT|= 5.188E-01 ANGLE=  10.3 DEGREES
:DIRQ :  |MSR1|= 3.477E-01 |PRATT|= 1.935E+00 ANGLE=  31.0 DEGREES
:DIRT :  |MSR1|= 3.654E-01 |PRATT|= 2.003E+00 ANGLE=  30.0 DEGREES
:MIX  :   MSE1   REGULARIZATION:  2.85E-04 GREED: 0.07500  LMStep 0.82  0.1824 Charge         
     
       CHARGES OF MIXED CHARGE DENSITY
:CTO   : INTERSTITIAL CHARGE =    10.483917
:CPC   : PW Pseudocharge     =    20.033707
:CTO001: CHARGE SPHERE  1    =    24.989982
:CTO002: CHARGE SPHERE  2    =    30.884030

:NEC03: NUCLEAR AND ELECTRONIC CHARGE    184.00000   184.00000

PW CHANGE     H    K    L      Current       Change    Residue
:PTO001:      0    0    0  4.94462738E-02  2.786E-05  1.231E-03
:PTO004:     -1   -1    0 -4.87436839E-03  9.647E-04  4.633E-03
:PTO005:      0   -2    0  7.12026132E-04  8.257E-05  4.435E-04
:PTO007:     -2    0    0 -9.49478082E-03  5.942E-06 -1.447E-04
:PTO008:     -1   -2    0 -3.54678226E-02  3.045E-04  5.811E-04
:PTO009:      0   -1   -1 -2.00051785E-02  1.641E-04  5.033E-04
:PTO010:     -1    0   -1  2.22812437E-02  2.262E-04  1.656E-03
:PTO011:     -2   -1    0  2.01199742E-02 -8.957E-05  7.151E-05
:PTO012:     -1   -1   -1  4.00566264E-02 -1.390E-04  4.027E-04
:PTO015:     -2   -2    0  6.78895042E-04 -4.445E-04 -1.883E-03
:PTO017:     -1   -2   -1 -4.21372215E-03 -7.147E-04 -2.960E-03
:PTO018:     -1   -3    0  2.31739659E-03 -6.513E-04 -2.720E-03

:ENE  : ********** TOTAL ENERGY IN Ry =       -23180.15648712

       TOTAL FORCE IN mRy/a.u. = |F|     Fx             Fy             Fz     with/without FOR in case.in2
:FOR001:   1.ATOM          0.000          0.000          0.000          0.000 partial forces
:FOR002:   2.ATOM        155.663       -154.803        -16.345          0.000 partial forces
       TOTAL FORCE WITH RESPECT TO GLOBAL CARTESIAN COORDINATES:
:FCA001:   1.ATOM                         0.000          0.000          0.000 partial forces
:FCA002:   2.ATOM                      -154.803        -16.345          0.000 partial forces
       TOTAL FORCE WITH RESPECT TO THE GLOBAL COORDINATE SYSTEM:
:FGL001:   1.ATOM                 0.000000000     0.000000000     0.000000000 partial forces
:FGL002:   2.ATOM              -154.802552160   -16.345275649     0.000000000 partial forces
 Flat Integration
 New Mode for Coulomb Integral
 Consistent 3/8+Simpson combinations
 Extension of core to zero
 LDM version in phi
 Fifth-order quadrature in outwin


            ---------
:ITE005:  5. ITERATION
            ---------

:NATO :    2 INDEPENDENT AND    6 TOTAL ATOMS IN UNITCELL
       SUBSTANCE: blebleble                                                   

       LATTICE                      = P   
:POT  : POTENTIAL OPTION EX_PBE EC_PBE VX_PBE VC_PBE
:LAT  : LATTICE CONSTANTS= 10.01782 11.31152  5.44657    1.571    1.571    1.571
:VOL  : UNIT CELL VOLUME =     617.18753
       MODE OF CALCULATION IS       = RELA
       NON-SPINPOLARIZED CALCULATION
:IFFT  : FFT-parameters:   80   90   48 Factor: 2.00


   CONVERGENCE PARAMETER FOR PSEUDOCHARGE: NCON=  9
   MAXIMAL VALUE OF RMT(JATOM)*ABSK(NKK) : RK  =27.23101


:VKCOUL :  VK-COUL convergence: 0.367E-07
       ATOMNUMBER=  1 Fe1        VCOUL-ZERO =  0.47099E+00
:EFG001:                        EFG         =    -3.76539   *10**21  V / m**2
                               V20  TOT/SRF=     2.74325    -0.06026
                               V22  TOT/SRF=     1.67340     0.01909
                               V22M TOT/SRF=    -1.39964    -0.06073
                               V21  TOT/SRF=     0.00000     0.00000
                               V21M TOT/SRF=     0.00000     0.00000

              0.08959   -1.39964    0.00000        0.59776    0.00000    0.00000
             -1.39964   -3.25722    0.00000        0.00000   -3.76539    0.00000
              0.00000    0.00000    3.16763        0.00000    0.00000    3.16763

         MAIN DIRECTIONS OF THE EFG   1.0000  0.3631  0.0000
                                     -0.3631  1.0000  0.0000
                                      0.0000  0.0000  1.0000
:ANG001:  ANGLE WITH OLD X-AXIS =        20.0

:ETA001:                         ASYMM. ETA =     0.68250


       ATOMNUMBER=  2 As1        VCOUL-ZERO =  0.37898E+00
:EFG002:                        EFG         =    -4.93601   *10**21  V / m**2
                               V20  TOT/SRF=     2.78345    -0.04622
                               V22  TOT/SRF=     0.78252     0.02309
                               V22M TOT/SRF=    -3.23570     0.09226
                               V21  TOT/SRF=     0.00000     0.00000
                               V21M TOT/SRF=     0.00000     0.00000

             -0.82450   -3.23570    0.00000        1.72196    0.00000    0.00000
             -3.23570   -2.38955    0.00000        0.00000   -4.93601    0.00000
              0.00000    0.00000    3.21405        0.00000    0.00000    3.21405

         MAIN DIRECTIONS OF THE EFG   1.0000  0.7870  0.0000
                                     -0.7870  1.0000  0.0000
                                      0.0000  0.0000  1.0000
:ANG002:  ANGLE WITH OLD X-AXIS =        38.2

:ETA002:                         ASYMM. ETA =     0.30229


     HELLMANN-FEYNMAN-FORCE IN mRy/a.u. = |F|  Fx       Fy             Fz
:FHF001:   1.ATOM      0.000000000000      0.000000000000      0.000000000000      0.000000000000

     HELLMANN-FEYNMAN-FORCE IN mRy/a.u. = |F|  Fx       Fy             Fz
:FHF002:   2.ATOM    341.559523615049   -192.799568886349   -281.941898995834      0.000000000000

:FIT001: LUSE= 13 SIGMA OF V-XC FIT FOR ATOM  1  0.7072527E-02
:FIT001: LUSE= 13 SIGMA OF V-XC FIT FOR ATOM  1  0.7072527E-02
:FIT002: LUSE= 13 SIGMA OF V-XC FIT FOR ATOM  2  0.9459047E-03
:FIT002: LUSE= 13 SIGMA OF V-XC FIT FOR ATOM  2  0.9459047E-03
:DEN  : DENSITY INTEGRAL  =         -9828.35222634   (Ry)
       ELS_POTENTIAL_AT Z=0 and Z=0.5:  -0.28148  -0.28148
       ELS_POTENTIAL_AT Y=0 and Y=0.5:  -0.05454  -0.05454
:VZERO:v0,v0c,v0x  -1.05736  -0.28148  -0.77588 v5,v5c,v5x  -1.05736  -0.28148  -0.77588
:VZERY:v0,v0c,v0x  -0.84524  -0.05454  -0.79070 v5,v5c,v5x  -0.84524  -0.05454  -0.79070
:VZERX:v0,v0c,v0x  -0.58497   0.14993  -0.73491 v5,v5c,v5x  -0.58497   0.14993  -0.73491
:LMAX-WF:   10   Non-Spherical LMAX:   4

          ATOMIC SPHERE DEPENDENT PARAMETERS FOR ATOM  Fe1       
:e__0001: OVERALL ENERGY PARAMETER IS    0.4961
          OVERALL BASIS SET ON ATOM IS LAPW
:E1_0001: E( 1)=    0.4961
             APW+lo
:E1_0001: E( 1)=   -3.2419   E(BOTTOM)=   -3.302   E(TOP)=   -3.182  1  2   153
             LOCAL ORBITAL
:E2_0001: E( 2)=    0.5528   E(BOTTOM)=    0.247   E(TOP)=    0.859  0  1   130
             APW+lo
:E0_0001: E( 0)=    0.4961
             APW+lo

          ATOMIC SPHERE DEPENDENT PARAMETERS FOR ATOM  As1       
:e__0002: OVERALL ENERGY PARAMETER IS    0.4961
          OVERALL BASIS SET ON ATOM IS LAPW
:E2_0002: E( 2)=    0.4961
             APW+lo
:E2_0002: E( 2)=   -1.9508   E(BOTTOM)=   -2.003   E(TOP)=   -1.899  0  1   173
             LOCAL ORBITAL
:E0_0002: E( 0)=    0.8961
             APW+lo
:E0_0002: E( 0)=   -0.7600   E(BOTTOM)=   -1.039   E(TOP)= -200.000  3 -1   150
             LOCAL ORBITAL
:E1_0002: E( 1)=    0.4961
             APW+lo

       K=   0.00000   0.00000   0.00000            1
:RKM  : MATRIX SIZE   437LOs:  84  RKM= 6.97  WEIGHT= 1.00  PGR:    
       EIGENVALUES ARE:
:EIG00001:      -3.2335670   -3.2335481   -3.2312257   -3.2311748   -3.2209480
:EIG00006:      -3.2209250   -1.9418288   -1.9415595   -1.9395364   -1.9392780
:EIG00011:      -1.9392371   -1.9392039   -1.9382327   -1.9381728   -1.9378809
:EIG00016:      -1.9378557   -1.9378460   -1.9377322   -1.9362785   -1.9358603
:EIG00021:      -1.9356592   -1.9355416   -1.9346337   -1.9342936   -1.9340219
:EIG00026:      -1.9336753   -0.4202618   -0.2261581   -0.1630371   -0.1283492
:EIG00031:       0.1601536    0.2359057    0.3284357    0.3660860    0.3927074
:EIG00036:       0.4266026    0.5056599    0.5370930    0.5475370    0.5479311
:EIG00041:       0.5763910    0.6058776    0.6066225    0.6120207    0.7438224
:EIG00046:       0.8227571    0.9463062    0.9894853    0.9920506    0.9964322
 
:EIG00051:       1.0915792    1.1174325    1.1410775    1.2658504    1.2880593
:EIG00056:       1.4397061    1.4405885    1.5044288    1.5065094    1.5243545
:EIG00061:       1.5659642    1.5761015    1.6152077    1.6298657    1.6840827
:EIG00066:       1.6974272    1.7156024    1.8295231    1.8363909    1.8452073
:EIG00071:       1.8582939    1.8906633    1.8911162    1.9616730    2.0560313
:EIG00076:       2.1893917
       ********************************************************

:KPT   :      NUMBER OF K-POINTS:   396
       Insulator, EF-inconsistency corrected
:GAP (global)   :  0.024122 Ry =     0.328 eV (accurate value if proper k-mesh)
         Bandranges (emin - emax) and occupancy:
:BAN00034:  34    0.229530    0.437910  2.00000000
:BAN00035:  35    0.348545    0.490108  2.00000000
:BAN00036:  36    0.356357    0.509495  2.00000000
:BAN00037:  37    0.405717    0.540210  2.00000000
:BAN00038:  38    0.406727    0.544925  2.00000000
:BAN00039:  39    0.455525    0.551658  2.00000000
:BAN00040:  40    0.455525    0.561018  2.00000000
:BAN00041:  41    0.532997    0.603400  2.00000000
:BAN00042:  42    0.537585    0.605878  2.00000000
:BAN00043:  43    0.566475    0.626754  2.00000000
:BAN00044:  44    0.580960    0.626754  2.00000000
:BAN00045:  45    0.650877    0.870445  0.00000000
:BAN00046:  46    0.666132    0.874154  0.00000000
:BAN00047:  47    0.696227    0.954934  0.00000000
:BAN00048:  48    0.696227    0.989485  0.00000000
:BAN00049:  49    0.786460    1.002428  0.00000000
        Energy to separate low and high energystates:    0.11015


:NOE  : NUMBER OF ELECTRONS          =   88.000

:FER  : F E R M I - ENERGY(TETRAH.M.)=   0.6267543936
:GMA  : POTENTIAL AND CHARGE CUT-OFF  12.00 Ry**.5

:POS001: ATOM   -1 X,Y,Z = 0.50000 0.50000 0.50000  MULT= 2  ZZ= 26.000  Fe1       

       LMMAX 16
       LM=   0 0  2 0  2 2 -2 2  4 0  4 2 -4 2  4 4 -4 4  6 0  6 2 -6 2  6 4 -6 4  6 6 -6 6

:CHA001: TOTAL VALENCE CHARGE INSIDE SPHERE   1 =  13.1031    (RMT=  2.2700 )
:PCS001: PARTIAL CHARGES SPHERE =  1 S,P,D,F,PX,PY,PZ,D-Z2,D-X2Y2,D-XY,D-XZ,D-YZ 
:QTL001: 0.3420 6.4231 6.3087 0.0236 2.1541 2.1523 2.1166 0.9409 1.3441 1.2619 1.2781 1.4837
        Q-s-low E-s-low   Q-p-low E-p-low   Q-d-low E-d-low   Q-f-low E-f-low
:EPL001:  0.1002 -0.2208    6.0645 -3.1855    0.0997 -0.1368    0.0056 -0.3915
        Q-s-hi  E-s-hi    Q-p-hi  E-p-hi    Q-d-hi  E-d-hi    Q-f-hi  E-f-hi 
:EPH001:  0.2418  0.3214    0.3585  0.4439    6.2090  0.5147    0.0180  0.4565

                      QXX         QXY         QYY         QZZ       UP TO R
:VZZ001:            -1.62857    -2.79410   -10.19454    11.82310       2.270

:POS002: ATOM   -2 X,Y,Z = 0.67630 0.86240 0.50000  MULT= 4  ZZ= 33.000  As1       

       LMMAX 28
       LM=   0 0  1 1 -1 1  2 0  2 2 -2 2  3 1 -3 1  3 3 -3 3  4 0  4 2 -4 2  4 4 -4 4  5 1 -5 1
         5 3 -5 3  5 5 -5 5  6 0  6 2 -6 2  6 4 -6 4  6 6 -6 6

:CHA002: TOTAL VALENCE CHARGE INSIDE SPHERE   2 =  12.7874    (RMT=  2.1600 )
:PCS002: PARTIAL CHARGES SPHERE =  2 S,P,D,F,PX,PY,PZ,D-Z2,D-X2Y2,D-XY,D-XZ,D-YZ 
:QTL002: 1.2471 1.469410.0530 0.0145 0.5131 0.5281 0.4281 2.0125 2.0089 2.0179 2.0065 2.0072
        Q-s-low E-s-low   Q-p-low E-p-low   Q-d-low E-d-low   Q-f-low E-f-low
:EPL002:  1.1333 -0.1666    0.0546 -0.1850    9.9678 -1.9361    0.0013 -0.6424
        Q-s-hi  E-s-hi    Q-p-hi  E-p-hi    Q-d-hi  E-d-hi    Q-f-hi  E-f-hi 
:EPH002:  0.1138  0.3816    1.4148  0.4105    0.0851  0.4858    0.0131  0.5032

                      QXX         QXY         QYY         QZZ       UP TO R
:VZZ002:            -4.93651   -10.48602    -9.23113    14.16764       2.160

:CHA  : TOTAL VALENCE CHARGE INSIDE UNIT CELL =      88.000000

:SUM  : SUM OF EIGENVALUES =        -104.823113135


        1.ATOM      Fe1                   5 CORE STATES
:1S 001: 1S                -513.159125737 Ry
:2S 001: 2S                 -59.048724827 Ry
:2PP001: 2P*                -50.755159039 Ry
:2P 001: 2P                 -49.837375378 Ry
:3S 001: 3S                  -5.717693946 Ry

        2.ATOM      As1                   7 CORE STATES
       CORE-FORCE in mRy/a.u. = |F|      Fx             Fy             Fz
:FCO002:   2.ATOM    232.751962976325     99.802455794796    210.268747289416      0.000000000000

:1S 002: 1S                -860.042957026 Ry
:2S 002: 2S                -108.173551471 Ry
:2PP002: 2P*                -96.530432931 Ry
:2P 002: 2P                 -93.843114229 Ry
:3S 002: 3S                 -12.930311844 Ry
:3PP002: 3P*                 -9.019650320 Ry
:3P 002: 3P                  -8.650702729 Ry
:CINT001 Core Integral Atom   1   11.998319
:CINT002 Core Integral Atom   2   17.999376

       DENSITY AT NUCLEUS
        JATOM        VALENCE       SEMI-CORE          CORE           TOTAL
:RTO001:   1        6.269091        0.000000    15302.777863    15309.046954
:RTO002:   2       42.326027        0.000000    36570.062273    36612.388300
     
       CHARGES OF NEW CHARGE DENSITY
:NTO   : INTERSTITIAL CHARGE =    10.644166
:NPC   : PW Pseudocharge     =    19.233306
:NTO001: CHARGE SPHERE  1    =    25.101416
:NTO002: CHARGE SPHERE  2    =    30.786781

:NEC01: NUCLEAR AND ELECTRONIC CHARGE    184.00000   183.99412
     
       CHARGES OF OLD CHARGE DENSITY
:OTO   : INTERSTITIAL CHARGE =    10.483917
:OPC   : PW Pseudocharge     =    20.033707
:OTO001: CHARGE SPHERE  1    =    24.989982
:OTO002: CHARGE SPHERE  2    =    30.884030

:NEC02: NUCLEAR AND ELECTRONIC CHARGE    184.00000   184.00000
     
       CONVERGENCE TEST
:DTO001: DIFFERENCE IN SPHERE  1 =  0.2089364
:DTO002: DIFFERENCE IN SPHERE  2 =  0.0876074

:DIS  :  CHARGE DISTANCE       ( 0.2089364 for atom    1 spin 1)      0.1280504
 PW Mixed is          458
 
******************************************************
* MULTISECANT MIXING VER9 RELEASE 10.4.0              *
* Standard Mode with controls                        *
* Fixed density scale                                *
* Regularization       1.000E-04                     *
* Trust Upper Limit    5.000E+00                     *
* Max Number of Memory Steps    8                    *
******************************************************
 
:PWTMP   3.5034E+02  5.6146E+02  6.1719E+02
:PLANE:  PW TOTAL      3.8818 DISTAN   4.29E-01  1.11E+01 %
:CHARG:  CLM/ATOM    381.2209 DISTAN   4.14E-01  1.09E-01 %
 
Step History
        DMIX         DMIXT        Red     Pred      Trust     Lambda    MagRel    MagAbs     Beta
  1   3.5000E-02   3.5000E-02 -1.00E+00  1.00E+00 -1.00E+01  1.00E+00  3.50E-02  3.50E-02  1.00E+00
  2   1.6115E-02   1.6115E-02  7.41E-01  1.00E+00 -1.00E+01  1.00E+00  1.61E-02  5.22E-02  1.00E+00
  3   3.0250E-02   3.0250E-02  9.71E-01  1.00E+00 -1.00E+01  1.06E+00  3.02E-02  7.27E-02  1.00E+00
  4   3.0001E-02   3.0001E-02  8.59E-01  8.46E-01  1.53E-01  1.48E+00  1.17E-01  2.72E-01  1.00E+00
  5   7.5003E-02   6.1136E-02 -1.00E+00  5.15E-01  2.43E-01  1.00E+00  1.82E-01  3.65E-01  1.00E+00
:JACOBIANS    9.281E-01   1.352E-01
  
:NORMS:  1/Froebius, Min, Max, Used   0.4022E+00  0.3825E+00  0.9929E+00  0.4306E+00
:INFO :  Number of Memory Steps    4 Skipping    0
:INFO :  SLambda=    1.5264692265  Max    1.5264692265
:PREDicted Charge, CTotal, PW Trust    8.137E-02   2.268E-01   1.323E-01
:PREDicted DMix, Beta, BLim   1.3468E-01  1.5674E+00  5.3561E-01

Eigenvalues, unscaled except for SY+YY
   #     SY Real        SY Imag          SS             YY         SY+YY Real      SY+YY Imag
   1   7.374868E-01   0.000000E+00   5.470438E-01   3.739311E+00   4.786218E+00   0.000000E+00
   2   1.849831E-01   0.000000E+00   1.000755E-01   2.605151E-01   6.217049E-01   0.000000E+00
   3   5.697257E-05   0.000000E+00   1.090146E-05   1.656507E-04   2.771876E-04   0.000000E+00
   4  -1.051624E-15   0.000000E+00  -1.224195E-17   8.500200E-06   9.232023E-06   0.000000E+00
 
:INFO :  Singular value  4.786E+00 Weight  1.000E+00 Projection -1.919E-01
:INFO :  Singular value  6.217E-01 Weight  1.000E+00 Projection -5.353E-01
:INFO :  Singular value  2.774E-04 Weight  3.550E-01 Projection -2.332E+01
:INFO :  Singular value  9.224E-06 Weight  6.082E-04 Projection  6.412E-02
:RANK :  ACTIVE   2.36/4  =  58.89 % ; YY RANK   2.16/4  =  54.11 %
 
Increasing Charge by   1.667
:BLIM :  VZERO Control Off
:TRUST:  Step 3.67E-01  Charge 1.38E-01 (e) CTO  2.50E-01 (e) PW  4.33E-01 (e)
:DTRUS:  Lambda    6.409E-02 Increment    3.638E-12 Iterations    97 DMIX    9.326E-02
:INFOA:  Angle SubSpace to MSR1      1.62
:DIRM :  MEMORY  4/8  SCALE   1.000 RED  0.47 PRED  0.51 NEXT  0.69 
:INFO :  Limited by Atoms F by Step T

:TRAVE:  Charge 3.88E-02 (e) CTO  8.18E-02 (e) PW  1.25E-01 (e)
:DIRP :  |MSR1|= 1.840E-01 |PRATT|= 4.290E-01 ANGLE=  31.3 DEGREES
:DIRQ :  |MSR1|= 2.882E-01 |PRATT|= 8.275E-01 ANGLE=   9.5 DEGREES
:DIRT :  |MSR1|= 3.419E-01 |PRATT|= 9.321E-01 ANGLE=  18.3 DEGREES
:MIX  :   MSE1   REGULARIZATION:  3.74E-04 GREED: 0.09333  LMStep 0.98  0.3668 Step           
     
       CHARGES OF MIXED CHARGE DENSITY
:CTO   : INTERSTITIAL CHARGE =    10.553786
:CPC   : PW Pseudocharge     =    20.054744
:CTO001: CHARGE SPHERE  1    =    25.004735
:CTO002: CHARGE SPHERE  2    =    30.859186

:NEC03: NUCLEAR AND ELECTRONIC CHARGE    184.00000   184.00000

PW CHANGE     H    K    L      Current       Change    Residue
:PTO001:      0    0    0  4.95935649E-02  1.473E-04 -1.010E-03
:PTO004:     -1   -1    0 -3.05303506E-03  1.821E-03  4.496E-03
:PTO005:      0   -2    0  1.23451220E-03  5.225E-04  9.166E-04
:PTO007:     -2    0    0 -9.18943679E-03  3.053E-04  7.969E-04
:PTO008:     -1   -2    0 -3.55690396E-02 -1.012E-04  1.794E-03
:PTO009:      0   -1   -1 -1.93990616E-02  6.061E-04  1.620E-03
:PTO010:     -1    0   -1  2.35811236E-02  1.300E-03  1.313E-03
:PTO011:     -2   -1    0  2.03328220E-02  2.128E-04 -7.327E-04
:PTO012:     -1   -1   -1  4.06629100E-02  6.063E-04 -1.063E-03
:PTO015:     -2   -2    0  8.78792743E-04  1.999E-04 -1.045E-03
:PTO017:     -1   -2   -1 -3.87700372E-03  3.367E-04 -1.570E-03
:PTO018:     -1   -3    0  2.36080935E-03  4.341E-05 -2.013E-03

:ENE  : ********** TOTAL ENERGY IN Ry =       -23180.07345676

       TOTAL FORCE IN mRy/a.u. = |F|     Fx             Fy             Fz     with/without FOR in case.in2
:FOR001:   1.ATOM          0.000          0.000          0.000          0.000 partial forces
:FOR002:   2.ATOM        117.412        -92.997        -71.673          0.000 partial forces
       TOTAL FORCE WITH RESPECT TO GLOBAL CARTESIAN COORDINATES:
:FCA001:   1.ATOM                         0.000          0.000          0.000 partial forces
:FCA002:   2.ATOM                       -92.997        -71.673          0.000 partial forces
       TOTAL FORCE WITH RESPECT TO THE GLOBAL COORDINATE SYSTEM:
:FGL001:   1.ATOM                 0.000000000     0.000000000     0.000000000 partial forces
:FGL002:   2.ATOM               -92.997113092   -71.673151706     0.000000000 partial forces
[...]
:CTO002: CHARGE SPHERE  2    =    30.830415

:NEC03: NUCLEAR AND ELECTRONIC CHARGE    184.00000   184.00000

PW CHANGE     H    K    L      Current       Change    Residue
:PTO001:      0    0    0  4.84381302E-02  2.845E-07  4.167E-07
:PTO004:     -1   -1    0 -2.39896938E-03  1.234E-06  1.404E-06
:PTO005:      0   -2    0  1.40551703E-03  3.783E-07  4.092E-07
:PTO007:     -2    0    0 -8.81059317E-03  5.081E-07  5.451E-07
:PTO008:     -1   -2    0 -3.42218688E-02  5.269E-07  5.291E-07
:PTO009:      0   -1   -1 -1.87593874E-02  6.259E-07  6.990E-07
:PTO010:     -1    0   -1  2.35031307E-02  7.261E-07  8.565E-07
:PTO011:     -2   -1    0  1.97887068E-02 -9.101E-08 -8.180E-08
:PTO012:     -1   -1   -1  3.91957425E-02 -3.988E-07 -3.994E-07
:PTO015:     -2   -2    0 -2.72970928E-05 -4.265E-08 -5.909E-08
:PTO017:     -1   -2   -1 -5.25807920E-03  2.793E-07  2.759E-07
:PTO018:     -1   -3    0  6.44986097E-04  2.759E-07  3.036E-07

:ENE  : ********** TOTAL ENERGY IN Ry =       -23180.04669404

       TOTAL FORCE IN mRy/a.u. = |F|     Fx             Fy             Fz     with/without FOR in case.in2
:FOR001:   1.ATOM          0.000          0.000          0.000          0.000 partial forces
:FOR002:   2.ATOM        165.844         10.091       -165.537          0.000 partial forces
       TOTAL FORCE WITH RESPECT TO GLOBAL CARTESIAN COORDINATES:
:FCA001:   1.ATOM                         0.000          0.000          0.000 partial forces
:FCA002:   2.ATOM                        10.091       -165.537          0.000 partial forces
       TOTAL FORCE WITH RESPECT TO THE GLOBAL COORDINATE SYSTEM:
:FGL001:   1.ATOM                 0.000000000     0.000000000     0.000000000 partial forces
:FGL002:   2.ATOM                10.090780207  -165.537198349     0.000000000 partial forces
 Flat Integration
 New Mode for Coulomb Integral
 Consistent 3/8+Simpson combinations
 Extension of core to zero
 LDM version in phi
 Fifth-order quadrature in outwin


            ---------
:ITE014: 14. ITERATION
            ---------

:NATO :    2 INDEPENDENT AND    6 TOTAL ATOMS IN UNITCELL
       SUBSTANCE: blebleble                                                   

       LATTICE                      = P   
:POT  : POTENTIAL OPTION EX_PBE EC_PBE VX_PBE VC_PBE
:LAT  : LATTICE CONSTANTS= 10.01782 11.31152  5.44657    1.571    1.571    1.571
:VOL  : UNIT CELL VOLUME =     617.18753
       MODE OF CALCULATION IS       = RELA
       NON-SPINPOLARIZED CALCULATION
:IFFT  : FFT-parameters:   80   90   48 Factor: 2.00


   CONVERGENCE PARAMETER FOR PSEUDOCHARGE: NCON=  9
   MAXIMAL VALUE OF RMT(JATOM)*ABSK(NKK) : RK  =27.23101


:VKCOUL :  VK-COUL convergence: 0.804E-07
       ATOMNUMBER=  1 Fe1        VCOUL-ZERO =  0.51886E+00
:EFG001:                        EFG         =     9.00443   *10**21  V / m**2
                               V20  TOT/SRF=     7.79807    -0.04618
                               V22  TOT/SRF=     3.13832     0.02980
                               V22M TOT/SRF=    -2.34757    -0.07094
                               V21  TOT/SRF=     0.00000     0.00000
                               V21M TOT/SRF=     0.00000     0.00000

             -1.36389   -2.34757    0.00000       -0.58301    0.00000    0.00000
             -2.34757   -7.64054    0.00000        0.00000   -8.42142    0.00000
              0.00000    0.00000    9.00443        0.00000    0.00000    9.00443

         MAIN DIRECTIONS OF THE EFG   1.0000  0.3326  0.0000
                                     -0.3326  1.0000  0.0000
                                      0.0000  0.0000  1.0000
:ANG001:  ANGLE WITH OLD X-AXIS =        18.4

:ETA001:                         ASYMM. ETA =     0.87051


       ATOMNUMBER=  2 As1        VCOUL-ZERO =  0.36284E+00
:EFG002:                        EFG         =   -16.61239   *10**21  V / m**2
                               V20  TOT/SRF=    11.33744     0.01523
                               V22  TOT/SRF=     2.19962     0.02618
                               V22M TOT/SRF=    -9.82346     0.00305
                               V21  TOT/SRF=     0.00000     0.00000
                               V21M TOT/SRF=     0.00000     0.00000

             -4.34605   -9.82346    0.00000        3.52104    0.00000    0.00000
             -9.82346   -8.74530    0.00000        0.00000  -16.61239    0.00000
              0.00000    0.00000   13.09135        0.00000    0.00000   13.09135

         MAIN DIRECTIONS OF THE EFG   1.0000  0.8008  0.0000
                                     -0.8008  1.0000  0.0000
                                      0.0000  0.0000  1.0000
:ANG002:  ANGLE WITH OLD X-AXIS =        38.7

:ETA002:                         ASYMM. ETA =     0.57609


     HELLMANN-FEYNMAN-FORCE IN mRy/a.u. = |F|  Fx       Fy             Fz
:FHF001:   1.ATOM      0.000000000000      0.000000000000      0.000000000000      0.000000000000

     HELLMANN-FEYNMAN-FORCE IN mRy/a.u. = |F|  Fx       Fy             Fz
:FHF002:   2.ATOM    751.966729360162    -22.043449493134   -751.643564729362      0.000000000000

:FIT001: LUSE= 13 SIGMA OF V-XC FIT FOR ATOM  1  0.6737927E-02
:FIT001: LUSE= 13 SIGMA OF V-XC FIT FOR ATOM  1  0.6737927E-02
:FIT002: LUSE= 13 SIGMA OF V-XC FIT FOR ATOM  2  0.1338920E-02
:FIT002: LUSE= 13 SIGMA OF V-XC FIT FOR ATOM  2  0.1338920E-02
:DEN  : DENSITY INTEGRAL  =         -9820.34851431   (Ry)
       ELS_POTENTIAL_AT Z=0 and Z=0.5:  -0.26867  -0.26867
       ELS_POTENTIAL_AT Y=0 and Y=0.5:  -0.04288  -0.04288
:VZERO:v0,v0c,v0x  -1.04712  -0.26867  -0.77846 v5,v5c,v5x  -1.04712  -0.26867  -0.77846
:VZERY:v0,v0c,v0x  -0.84536  -0.04288  -0.80249 v5,v5c,v5x  -0.84536  -0.04288  -0.80249
:VZERX:v0,v0c,v0x  -0.58771   0.15442  -0.74213 v5,v5c,v5x  -0.58771   0.15442  -0.74213
:LMAX-WF:   10   Non-Spherical LMAX:   4

          ATOMIC SPHERE DEPENDENT PARAMETERS FOR ATOM  Fe1       
:e__0001: OVERALL ENERGY PARAMETER IS    0.4072
          OVERALL BASIS SET ON ATOM IS LAPW
:E1_0001: E( 1)=    0.4072
             APW+lo
:E1_0001: E( 1)=   -3.2634   E(BOTTOM)=   -3.322   E(TOP)=   -3.205  1  2   146
             LOCAL ORBITAL
:E2_0001: E( 2)=    0.5403   E(BOTTOM)=    0.242   E(TOP)=    0.839  0  1   132
             APW+lo
:E0_0001: E( 0)=    0.4072
             APW+lo

          ATOMIC SPHERE DEPENDENT PARAMETERS FOR ATOM  As1       
:e__0002: OVERALL ENERGY PARAMETER IS    0.4072
          OVERALL BASIS SET ON ATOM IS LAPW
:E2_0002: E( 2)=    0.4072
             APW+lo
:E2_0002: E( 2)=   -2.0069   E(BOTTOM)=   -2.058   E(TOP)=   -1.956  0  1   162
             LOCAL ORBITAL
:E0_0002: E( 0)=    0.8072
             APW+lo
:E0_0002: E( 0)=   -0.7600   E(BOTTOM)=   -1.071   E(TOP)= -200.000  3 -1   156
             LOCAL ORBITAL
:E1_0002: E( 1)=    0.4072
             APW+lo

       K=   0.00000   0.00000   0.00000            1
:RKM  : MATRIX SIZE   437LOs:  84  RKM= 6.97  WEIGHT= 1.00  PGR:    
       EIGENVALUES ARE:
:EIG00001:      -3.2628579   -3.2628082   -3.2574102   -3.2573825   -3.2310923
:EIG00006:      -3.2310596   -2.0023073   -2.0020307   -1.9982823   -1.9981302
:EIG00011:      -1.9980480   -1.9980038   -1.9959116   -1.9958747   -1.9926002
:EIG00016:      -1.9921410   -1.9919903   -1.9917388   -1.9916304   -1.9914118
:EIG00021:      -1.9912578   -1.9911379   -1.9890508   -1.9889416   -1.9876264
:EIG00026:      -1.9872912   -0.4476414   -0.2614190   -0.1887049   -0.1535549
:EIG00031:       0.1507434    0.2200285    0.3121392    0.3489920    0.3733604
:EIG00036:       0.4130315    0.4906748    0.5179183    0.5283072    0.5293943
:EIG00041:       0.5660928    0.5935872    0.5945508    0.6000323    0.7291564
:EIG00046:       0.7914323    0.9190809    0.9582199    0.9591196    0.9729253
 
:EIG00051:       1.0764783    1.0826557    1.1058171    1.2333835    1.2719873
:EIG00056:       1.4201923    1.4220541    1.4674365    1.4815514    1.5006463
:EIG00061:       1.5492533    1.5573293    1.5968466    1.6217398    1.6662722
:EIG00066:       1.6699945    1.6991702    1.8057542    1.8086406    1.8311996
:EIG00071:       1.8445027    1.8631204    1.8725715    1.9507934    2.0230136
       ********************************************************

:KPT   :      NUMBER OF K-POINTS:   396
       Insulator, EF-inconsistency corrected
:GAP (global)   :  0.020439 Ry =     0.278 eV (accurate value if proper k-mesh)
         Bandranges (emin - emax) and occupancy:
:BAN00034:  34    0.211905    0.431228  2.00000000
:BAN00035:  35    0.330968    0.472527  2.00000000
:BAN00036:  36    0.337127    0.493485  2.00000000
:BAN00037:  37    0.392662    0.524033  2.00000000
:BAN00038:  38    0.392662    0.525390  2.00000000
:BAN00039:  39    0.437248    0.538261  2.00000000
:BAN00040:  40    0.437248    0.547756  2.00000000
:BAN00041:  41    0.521457    0.589794  2.00000000
:BAN00042:  42    0.525207    0.593587  2.00000000
:BAN00043:  43    0.552090    0.607133  2.00000000
:BAN00044:  44    0.567676    0.607193  2.00000000
:BAN00045:  45    0.627632    0.842656  0.00000000
:BAN00046:  46    0.645531    0.843044  0.00000000
:BAN00047:  47    0.674880    0.932669  0.00000000
:BAN00048:  48    0.674880    0.958220  0.00000000
:BAN00049:  49    0.758494    0.971980  0.00000000
        Energy to separate low and high energystates:    0.09346


:NOE  : NUMBER OF ELECTRONS          =   88.000

:FER  : F E R M I - ENERGY(TETRAH.M.)=   0.6071932775
:GMA  : POTENTIAL AND CHARGE CUT-OFF  12.00 Ry**.5

:POS001: ATOM   -1 X,Y,Z = 0.50000 0.50000 0.50000  MULT= 2  ZZ= 26.000  Fe1       

       LMMAX 16
       LM=   0 0  2 0  2 2 -2 2  4 0  4 2 -4 2  4 4 -4 4  6 0  6 2 -6 2  6 4 -6 4  6 6 -6 6

:CHA001: TOTAL VALENCE CHARGE INSIDE SPHERE   1 =  13.0177    (RMT=  2.2700 )
:PCS001: PARTIAL CHARGES SPHERE =  1 S,P,D,F,PX,PY,PZ,D-Z2,D-X2Y2,D-XY,D-XZ,D-YZ 
:QTL001: 0.3299 6.4041 6.2549 0.0230 2.1475 2.1449 2.1118 0.9530 1.3086 1.2428 1.2784 1.4722
        Q-s-low E-s-low   Q-p-low E-p-low   Q-d-low E-d-low   Q-f-low E-f-low
:EPL001:  0.0925 -0.2437    6.0599 -3.2100    0.0926 -0.1636    0.0054 -0.4148
        Q-s-hi  E-s-hi    Q-p-hi  E-p-hi    Q-d-hi  E-d-hi    Q-f-hi  E-f-hi 
:EPH001:  0.2374  0.3080    0.3442  0.4270    6.1623  0.5024    0.0176  0.4368

                      QXX         QXY         QYY         QZZ       UP TO R
:VZZ001:            -1.45777    -2.27042    -7.69000     9.14777       2.270

:POS002: ATOM   -2 X,Y,Z = 0.67630 0.86240 0.50000  MULT= 4  ZZ= 33.000  As1       

       LMMAX 28
       LM=   0 0  1 1 -1 1  2 0  2 2 -2 2  3 1 -3 1  3 3 -3 3  4 0  4 2 -4 2  4 4 -4 4  5 1 -5 1
         5 3 -5 3  5 5 -5 5  6 0  6 2 -6 2  6 4 -6 4  6 6 -6 6

:CHA002: TOTAL VALENCE CHARGE INSIDE SPHERE   2 =  12.8310    (RMT=  2.1600 )
:PCS002: PARTIAL CHARGES SPHERE =  2 S,P,D,F,PX,PY,PZ,D-Z2,D-X2Y2,D-XY,D-XZ,D-YZ 
:QTL002: 1.2598 1.500610.0532 0.0141 0.5211 0.5361 0.4434 2.0130 2.0085 2.0182 2.0059 2.0076
        Q-s-low E-s-low   Q-p-low E-p-low   Q-d-low E-d-low   Q-f-low E-f-low
:EPL002:  1.1460 -0.1936    0.0553 -0.2140    9.9688 -1.9925    0.0013 -0.6652
        Q-s-hi  E-s-hi    Q-p-hi  E-p-hi    Q-d-hi  E-d-hi    Q-f-hi  E-f-hi 
:EPH002:  0.1138  0.3633    1.4453  0.3906    0.0843  0.4691    0.0128  0.4888

                      QXX         QXY         QYY         QZZ       UP TO R
:VZZ002:            -4.39745    -9.88347    -8.74163    13.13908       2.160

:CHA  : TOTAL VALENCE CHARGE INSIDE UNIT CELL =      88.000000

:SUM  : SUM OF EIGENVALUES =        -108.016253251

       VALENCE-FORCE IN mRy/a.u. = |F|   Fx             Fy             Fz
:FVA001:   1.ATOM      0.000000000000      0.000000000000      0.000000000000      0.000000000000
       VALENCE-FORCE IN mRy/a.u. = |F|   Fx             Fy             Fz
:FVA002:   2.ATOM    134.153904867080    -27.954559321392    131.209042387453      0.000000000000
:FSU001:   1.ATOM      0.000000000000      0.000000000000      0.000000000000     -0.000000000000
:FSU002:   2.ATOM     38.401809943312     25.040997908963     29.114385287098     -0.000000000000

        1.ATOM      Fe1                   5 CORE STATES
:1S 001: 1S                -513.154597811 Ry
:2S 001: 2S                 -59.079869899 Ry
:2PP001: 2P*                -50.782218455 Ry
:2P 001: 2P                 -49.864779464 Ry
:3S 001: 3S                  -5.742877371 Ry

        2.ATOM      As1                   7 CORE STATES
       CORE-FORCE in mRy/a.u. = |F|      Fx             Fy             Fz
:FCO002:   2.ATOM    587.005107495331     32.057250912535    586.129105990767      0.000000000000

:1S 002: 1S                -860.104431968 Ry
:2S 002: 2S                -108.232374504 Ry
:2PP002: 2P*                -96.589524915 Ry
:2P 002: 2P                 -93.902166381 Ry
:3S 002: 3S                 -12.989019887 Ry
:3PP002: 3P*                 -9.078018893 Ry
:3P 002: 3P                  -8.708988311 Ry
:CINT001 Core Integral Atom   1   11.998369
:CINT002 Core Integral Atom   2   17.999384

       DENSITY AT NUCLEUS
        JATOM        VALENCE       SEMI-CORE          CORE           TOTAL
:RTO001:   1        5.991553        0.000000    15302.836705    15308.828258
:RTO002:   2       43.028029        0.000000    36570.206800    36613.234829
     
       CHARGES OF NEW CHARGE DENSITY
:NTO   : INTERSTITIAL CHARGE =    10.640535
:NPC   : PW Pseudocharge     =    19.238777
:NTO001: CHARGE SPHERE  1    =    25.016025
:NTO002: CHARGE SPHERE  2    =    30.830418

:NEC01: NUCLEAR AND ELECTRONIC CHARGE    184.00000   183.99426
     
       CHARGES OF OLD CHARGE DENSITY
:OTO   : INTERSTITIAL CHARGE =    10.646295
:OPC   : PW Pseudocharge     =    19.249115
:OTO001: CHARGE SPHERE  1    =    25.016022
:OTO002: CHARGE SPHERE  2    =    30.830415

:NEC02: NUCLEAR AND ELECTRONIC CHARGE    184.00000   184.00000
     
       CONVERGENCE TEST
:DTO001: DIFFERENCE IN SPHERE  1 =  0.0000060
:DTO002: DIFFERENCE IN SPHERE  2 =  0.0000028

:DIS  :  CHARGE DISTANCE       ( 0.0000060 for atom    1 spin 1)      0.0000038
 PW Mixed is          458
 
******************************************************
* MULTISECANT MIXING VER9 RELEASE 10.4.0              *
* Standard Mode with controls                        *
* Fixed density scale                                *
* Regularization       1.000E-04                     *
* Trust Upper Limit    5.000E+00                     *
* Max Number of Memory Steps    8                    *
******************************************************
 
:PWTMP   3.5034E+02  5.6146E+02  6.1719E+02
:PLANE:  PW TOTAL      3.7689 DISTAN   1.78E-05  4.73E-04 %
:CHARG:  CLM/ATOM    381.2211 DISTAN   1.09E-05  2.86E-06 %
 
Step History
        DMIX         DMIXT        Red     Pred      Trust     Lambda    MagRel    MagAbs     Beta
  6   9.3329E-02   9.3265E-02  6.73E-01  6.86E-01  3.67E-01  1.37E+00  3.67E-01  3.42E-01  1.00E+00
  7   2.3332E-01   2.3332E-01  2.64E-01  3.84E-01  8.80E-01  1.59E+00  8.53E-01  5.35E-01  1.00E+00
  8   2.6783E-01   2.6783E-01  3.05E-01  4.80E-01  2.39E+00  1.10E+00  4.26E-01  7.05E-02  9.76E-01
  9   2.5728E-01   2.5728E-01  5.49E-01  4.23E-01  5.85E+00  1.51E+00  1.01E+00  5.11E-02  1.00E+00
 10   3.0820E-01   3.0820E-01  2.13E-01  2.91E-01  7.80E+00  1.52E+00  6.48E-01  1.80E-02  8.90E-01
 11   3.1153E-01   3.1153E-01  6.21E-01  4.02E-01  1.04E+01  1.51E+00  6.53E-01  3.86E-03  1.00E+00
 12   2.8532E-01   2.8532E-01  2.17E-01  2.07E-01  1.39E+01  1.38E+00  4.87E-01  1.79E-03  1.00E+00
 13   3.2260E-01   3.2260E-01  2.10E-01  2.95E-01  1.85E+01  1.36E+00  6.77E-01  5.39E-04  8.58E-01
 14   3.0043E-01   3.0043E-01 -1.00E+00  2.53E-01  2.25E+01  1.00E+00  8.69E-01  1.45E-04  1.00E+00
:JACOBIANS    1.479E+00   3.223E+00
  
:NORMS:  1/Froebius, Min, Max, Used   0.7877E+00  0.6958E+00  0.1019E+01  0.7877E+00
:INFO :  Number of Memory Steps    8 Skipping    5
:INFO :  SLambda=    1.2335552453  Max    1.2335552453
:PREDicted Charge, CTotal, PW Trust    1.295E-05   1.253E-05   1.266E-04
:PREDicted DMix, Beta, BLim   2.8530E-01  1.0559E+00  9.2821E+00

Eigenvalues, unscaled except for SY+YY
   #     SY Real        SY Imag          SS             YY         SY+YY Real      SY+YY Imag
   1   2.473372E+00   0.000000E+00   2.315001E+00   3.733334E+00   6.535854E+00   0.000000E+00
   2   1.560163E+00   0.000000E+00   1.467354E+00   1.708405E+00   3.658504E+00   0.000000E+00
   3   9.268752E-01   0.000000E+00   9.146671E-01   1.179827E+00   2.127628E+00   0.000000E+00
   4   3.901484E-01   0.000000E+00   1.787475E-01   9.370226E-01   1.802166E+00   0.000000E+00
   5   5.927458E-03   0.000000E+00   5.813271E-02   2.456021E-01   1.231410E-04   0.000000E+00
   6   4.873843E-05   0.000000E+00   2.768512E-02   1.753069E-01   3.179775E-02   0.000000E+00
   7   1.077482E-01   0.000000E+00   1.623036E-03   2.044347E-02   3.160201E-01   0.000000E+00
   8   8.306133E-02   0.000000E+00   3.000591E-05   5.845745E-05   3.708631E-01   0.000000E+00
 
:INFO :  Singular value  6.538E+00 Weight  1.000E+00 Projection -1.411E-06
:INFO :  Singular value  3.658E+00 Weight  1.000E+00 Projection  2.623E-07
:INFO :  Singular value  2.131E+00 Weight  1.000E+00 Projection  5.360E-06
:INFO :  Singular value  1.800E+00 Weight  1.000E+00 Projection -7.036E-06
:INFO :  Singular value  3.709E-01 Weight  1.000E+00 Projection  2.199E-05
:INFO :  Singular value  3.160E-01 Weight  1.000E+00 Projection -3.361E-05
:INFO :  Singular value  3.179E-02 Weight  9.999E-01 Projection -5.855E-05
:INFO :  Singular value  1.231E-04 Weight  9.812E-02 Projection  5.465E-05
:RANK :  ACTIVE   7.10/8  =  88.72 % ; YY RANK   7.02/8  =  87.79 %
 
:BLIM :  VZERO Control Off
:TRUST:  Step 2.25E+01  Charge 2.69E-02 (e) CTO  6.55E-02 (e) PW  1.14E-01 (e)
:DIRM :  MEMORY  8/8  SCALE   1.000 RED  0.17 PRED  0.25 NEXT  0.74 
:TRAVE:  Charge 2.55E-04 (e) CTO  7.44E-04 (e) PW  1.73E-03 (e)
:DIRP :  |MSR1|= 1.294E-05 |PRATT|= 1.782E-05 ANGLE=  16.5 DEGREES
:DIRQ :  |MSR1|= 1.221E-05 |PRATT|= 2.178E-05 ANGLE=  26.4 DEGREES
:DIRT :  |MSR1|= 1.779E-05 |PRATT|= 2.814E-05 ANGLE=  23.4 DEGREES
:MIX  :   MSE1   REGULARIZATION:  3.73E-04 GREED: 0.29412  Newton 1.00  0.6322                
     
       CHARGES OF MIXED CHARGE DENSITY
:CTO   : INTERSTITIAL CHARGE =    10.646288
:CPC   : PW Pseudocharge     =    19.249157
:CTO001: CHARGE SPHERE  1    =    25.016023
:CTO002: CHARGE SPHERE  2    =    30.830416

:NEC03: NUCLEAR AND ELECTRONIC CHARGE    184.00000   184.00000

PW CHANGE     H    K    L      Current       Change    Residue
:PTO001:      0    0    0  4.84381862E-02  5.601E-08  5.069E-08
:PTO004:     -1   -1    0 -2.39881816E-03  1.512E-07  1.609E-07
:PTO005:      0   -2    0  1.40554787E-03  3.084E-08  4.039E-08
:PTO007:     -2    0    0 -8.81056657E-03  2.660E-08 -3.282E-10
:PTO008:     -1   -2    0 -3.42218971E-02 -2.832E-08 -8.075E-08
:PTO009:      0   -1   -1 -1.87592601E-02  1.273E-07  2.159E-07
:PTO010:     -1    0   -1  2.35032316E-02  1.009E-07  1.011E-07
:PTO011:     -2   -1    0  1.97886958E-02 -1.105E-08 -4.001E-08
:PTO012:     -1   -1   -1  3.91957599E-02  1.734E-08  1.238E-08
:PTO015:     -2   -2    0 -2.72337720E-05  6.332E-08  1.094E-07
:PTO017:     -1   -2   -1 -5.25800015E-03  7.905E-08  1.230E-07
:PTO018:     -1   -3    0  6.45041677E-04  5.558E-08  3.493E-08

:ENE  : ********** TOTAL ENERGY IN Ry =       -23180.04669382

       TOTAL FORCE IN mRy/a.u. = |F|     Fx             Fy             Fz     with/without FOR in case.in2
:FOR001:   1.ATOM       0.000000       0.000000       0.000000       0.000000 total forces
:FOR002:   2.ATOM       8.795465       7.100240      -5.191031       0.000000 total forces
       TOTAL FORCE WITH RESPECT TO GLOBAL CARTESIAN COORDINATES:
:FCA001:   1.ATOM                      0.000000       0.000000       0.000000 total forces
:FCA002:   2.ATOM                      7.100240      -5.191031       0.000000 total forces
       TOTAL FORCE WITH RESPECT TO THE GLOBAL COORDINATE SYSTEM:
:FGL001:   1.ATOM                 0.000000000     0.000000000     0.000000000 total forces
:FGL002:   2.ATOM                 7.100240007    -5.191031064     0.000000000 total forces
