 
             +---------------------------------------------------+
             |                                                   |
             |                   WANNIER90                       |
             |                                                   |
             +---------------------------------------------------+
             |                                                   |
             |        Welcome to the Maximally-Localized         |
             |        Generalized Wannier Functions code         |
             |            http://www.wannier.org                 |
             |                                                   |
             |  Wannier90 v2.x Authors:                          |
             |    Arash A. Mostofi  (Imperial College London)    |
             |    Giovanni Pizzi    (EPFL)                       |
             |    Ivo Souza         (Universidad del Pais Vasco) |
             |    Jonathan R. Yates (University of Oxford)       |
             |                                                   |
             |  Wannier90 Contributors:                          |
             |    Young-Su Lee       (KIST, S. Korea)            |
             |    Matthew Shelley    (Imperial College London)   |
             |    Nicolas Poilvert   (Penn State University)     |
             |    Raffaello Bianco   (Paris 6 and CNRS)          |
             |    Gabriele Sclauzero (ETH Zurich)                |
             |    David Strubbe (MIT, USA)                       |
             |    Rei Sakuma (Lund University, Sweden)           |
             |    Yusuke Nomura (U. Tokyo, Japan)                |
             |    Takashi Koretsune (Riken, Japan)               |
             |    Yoshiro Nohara (ASMS Co. Ltd., Japan)          |
             |    Ryotaro Arita (Riken, Japan)                   |
             |    Lorenzo Paulatto (UPMC Paris)                  |
             |    Florian Thole (ETH Zurich)                     |
             |    Pablo Garcia Fernandez (Unican, Spain)         |
             |    Dominik Gresch (ETH Zurich)                    |
             |    Samuel Ponce (University of Oxford)            |
             |    Marco Gibertini (EPFL)                         |
             |    Christian Stieger (ETHZ, CH)                   |
             |    Stepan Tsirkin (Universidad del Pais Vasco)    |
             |                                                   |
             |  Wannier77 Authors:                               |
             |    Nicola Marzari    (EPFL)                       |
             |    Ivo Souza         (Universidad del Pais Vasco) |
             |    David Vanderbilt  (Rutgers University)         |
             |                                                   |
             |  Please cite                                      |
             |                                                   |
             |  [ref] "An updated version of Wannier90:          |
             |        A Tool for Obtaining Maximally Localised   |
             |        Wannier Functions", A. A. Mostofi,         |
             |        J. R. Yates, G. Pizzi, Y. S. Lee,          |
             |        I. Souza, D. Vanderbilt and N. Marzari,    |
             |        Comput. Phys. Commun. 185, 2309 (2014)     |
             |        http://dx.doi.org/10.1016/j.cpc.2014.05.003|
             |                                                   |
             |  in any publications arising from the use of      |
             |  this code. For the method please cite            |
             |                                                   |
             |  [ref] "Maximally Localized Generalised Wannier   |
             |         Functions for Composite Energy Bands"     |
             |         N. Marzari and D. Vanderbilt              |
             |         Phys. Rev. B 56 12847 (1997)              |
             |                                                   |
             |  [ref] "Maximally Localized Wannier Functions     |
             |         for Entangled Energy Bands"               |
             |         I. Souza, N. Marzari and D. Vanderbilt    |
             |         Phys. Rev. B 65 035109 (2001)             |
             |                                                   |
             |                                                   |
             | Copyright (c) 1996-2017                           |
             |        Arash A. Mostofi, Jonathan R. Yates,       |
             |        Young-Su Lee, Giovanni Pizzi, Ivo Souza,   |
             |        David Vanderbilt and Nicola Marzari        |
             |                                                   |
             |        Release: 2.1.0   13th January 2017         |
             |                                                   |
             | This program is free software; you can            |
             | redistribute it and/or modify it under the terms  |
             | of the GNU General Public License as published by |
             | the Free Software Foundation; either version 2 of |
             | the License, or (at your option) any later version|
             |                                                   |
             | This program is distributed in the hope that it   |
             | will be useful, but WITHOUT ANY WARRANTY; without |
             | even the implied warranty of MERCHANTABILITY or   |
             | FITNESS FOR A PARTICULAR PURPOSE. See the GNU     |
             | General Public License for more details.          |
             |                                                   |
             | You should have received a copy of the GNU General|
             | Public License along with this program; if not,   |
             | write to the Free Software Foundation, Inc.,      |
             | 675 Mass Ave, Cambridge, MA 02139, USA.           |
             |                                                   |
             +---------------------------------------------------+
             |    Execution started on  2Sep2021 at 14:40:18     |
             +---------------------------------------------------+
 
 ******************************************************************************
 * -> Using CODATA 2006 constant values                                       *
 *    (http://physics.nist.gov/cuu/Constants/index.html)                      *
 * -> Using Bohr value from CODATA                                            *
 ******************************************************************************
 
 
                                    ------
                                    SYSTEM
                                    ------
 
                              Lattice Vectors (Ang)
                    a_1     5.301200   0.000000   0.000000
                    a_2     0.000000   5.985800   0.000000
                    a_3     0.000000   0.000000   2.882200
 
                   Unit Cell Volume:      91.45775  (Ang^3)
 
                        Reciprocal-Space Vectors (Ang^-1)
                    b_1     1.185238   0.000000   0.000000
                    b_2     0.000000   1.049682   0.000000
                    b_3     0.000000   0.000000   2.179996
  
 *----------------------------------------------------------------------------*
 |   Site       Fractional Coordinate          Cartesian Coordinate (Ang)     |
 +----------------------------------------------------------------------------+
 | 1    1   0.50000   0.50000   0.50000   |    2.65060   2.99290   1.44110    |
 | 2    1   0.00000   0.00000   0.00000   |    0.00000   0.00000   0.00000    |
 | 3    1   0.67630   0.86240   0.50000   |    3.58520   5.16215   1.44110    |
 | 4    1   0.32370   0.13760   0.50000   |    1.71600   0.82365   1.44110    |
 | 5    1   0.82370   0.36240   0.00000   |    4.36660   2.16925   0.00000    |
 | 6    1   0.17630   0.63760   0.00000   |    0.93460   3.81655   0.00000    |
 *----------------------------------------------------------------------------*
  
                                ------------
                                K-POINT GRID
                                ------------
  
             Grid size = 10 x 10 x 20      Total points = 2000
  
  
 *---------------------------------- MAIN ------------------------------------*
 |  Number of Wannier Functions               :                22             |
 |  Number of input Bloch states              :                25             |
 |  Output verbosity (1=low, 5=high)          :                 1             |
 |  Timing Level (1=low, 5=high)              :                 1             |
 |  Optimisation (0=memory, 3=speed)          :                 3             |
 |  Length Unit                               :               Ang             |
 |  Post-processing setup (write *.nnkp)      :                 F             |
 |  Using Gamma-only branch of algorithms     :                 F             |
 *----------------------------------------------------------------------------*
 *------------------------------- WANNIERISE ---------------------------------*
 |  Total number of iterations                :            100000             |
 |  Number of CG steps before reset           :                 5             |
 |  Trial step length for line search         :             2.000             |
 |  Convergence tolerence                     :         0.100E-09             |
 |  Convergence window                        :                 3             |
 |  Iterations between writing output         :               100             |
 |  Iterations between backing up to disk     :               100             |
 |  Write r^2_nm to file                      :                 F             |
 |  Write xyz WF centres to file              :                 T             |
 |  Write on-site energies <0n|H|0n> to file  :                 F             |
 |  Use guiding centre to control phases      :                 T             |
 |  Use phases for initial projections        :                 F             |
 |  Iterations before starting guiding centres:                 0             |
 |  Iterations between using guiding centres  :                 1             |
 *----------------------------------------------------------------------------*
 *------------------------------- DISENTANGLE --------------------------------*
 |  Using band disentanglement                :                 T             |
 |  Total number of iterations                :             10000             |
 |  Mixing ratio                              :             0.500             |
 |  Convergence tolerence                     :         1.000E-10             |
 |  Convergence window                        :                 3             |
 *----------------------------------------------------------------------------*
 *-------------------------------- PLOTTING ----------------------------------*
 |  Plotting interpolated bandstructure       :                 T             |
 |   Number of K-path sections                :                 8             |
 |   Divisions along first K-path section     :                50             |
 |   Output format                            :           gnuplot             |
 |   Output mode                              :               s-k             |
 *----------------------------------------------------------------------------*
 |   K-space path sections:                                                   |
 |    From:  K    0.000  0.000  0.000     To:  K    0.000  0.000  0.500       |
 |    From:  K    0.000  0.000  0.500     To:  K    0.000  0.500  0.500       |
 |    From:  K    0.000  0.500  0.500     To:  K    0.000  0.500  0.000       |
 |    From:  K    0.000  0.500  0.000     To:  K    0.000  0.000  0.000       |
 |    From:  K    0.000  0.000  0.000     To:  K    0.500  0.000  0.000       |
 |    From:  K    0.500  0.000  0.000     To:  K    0.500  0.500  0.000       |
 |    From:  K    0.500  0.500  0.000     To:  K    0.500  0.500  0.500       |
 |    From:  K    0.500  0.500  0.500     To:  K    0.500  0.000  0.500       |
 *----------------------------------------------------------------------------*
 |  Plotting Hamiltonian in WF basis          :                 T             |
 *----------------------------------------------------------------------------*
 Time to read parameters        0.104 (sec)

 *---------------------------------- K-MESH ----------------------------------*
 +----------------------------------------------------------------------------+
 |                    Distance to Nearest-Neighbour Shells                    |
 |                    ------------------------------------                    |
 |          Shell             Distance (Ang^-1)          Multiplicity         |
 |          -----             -----------------          ------------         |
 |             1                   0.104968                      2            |
 |             2                   0.109000                      2            |
 |             3                   0.118524                      2            |
 |             4                   0.151325                      4            |
 |             5                   0.158323                      4            |
 |             6                   0.161024                      4            |
 |             7                   0.192216                      8            |
 |             8                   0.209936                      2            |
 |             9                   0.218000                      2            |
 |            10                   0.236546                      4            |
 |            11                   0.237048                      2            |
 |            12                   0.241083                      4            |
 +----------------------------------------------------------------------------+
 | The b-vectors are chosen automatically                                     |
 | The following shells are used:   1,  2,  3                                 |
 +----------------------------------------------------------------------------+
 |                        Shell   # Nearest-Neighbours                        |
 |                        -----   --------------------                        |
 |                          1               2                                 |
 |                          2               2                                 |
 |                          3               2                                 |
 +----------------------------------------------------------------------------+
 | Completeness relation is fully satisfied [Eq. (B1), PRB 56, 12847 (1997)]  |
 +----------------------------------------------------------------------------+
 |                  b_k Vectors (Ang^-1) and Weights (Ang^2)                  |
 |                  ----------------------------------------                  |
 |            No.         b_k(x)      b_k(y)      b_k(z)        w_b           |
 |            ---        --------------------------------     --------        |
 |             1         0.000000    0.104968    0.000000    45.378976        |
 |             2         0.000000   -0.104968    0.000000    45.378976        |
 |             3         0.000000    0.000000    0.109000    42.084148        |
 |             4         0.000000    0.000000   -0.109000    42.084148        |
 |             5         0.118524    0.000000    0.000000    35.592511        |
 |             6        -0.118524    0.000000    0.000000    35.592511        |
 +----------------------------------------------------------------------------+
 |                           b_k Directions (Ang^-1)                          |
 |                           -----------------------                          |
 |            No.           x           y           z                         |
 |            ---        --------------------------------                     |
 |             1         0.000000    0.104968    0.000000                     |
 |             2         0.000000    0.000000    0.109000                     |
 |             3         0.118524    0.000000    0.000000                     |
 +----------------------------------------------------------------------------+
  
 *============================================================================*
 |                              MEMORY ESTIMATE                               |
 |         Maximum RAM allocated during each phase of the calculation         |
 *============================================================================*
 |                        Disentanglement          253.24 Mb                  |
 |                            Wannierise:          264.24 Mb                  |
 |                          plot_wannier:          264.24 Mb                  |
 *----------------------------------------------------------------------------*
  
 Starting a new Wannier90 calculation ...

 Time to get kmesh              0.421 (sec)

 Reading overlaps from wann.mmn    : blebleble

 Reading projections from wann.amn : blebleble

 Time to read overlaps          5.509 (sec)

 *------------------------------- DISENTANGLE --------------------------------*
 +----------------------------------------------------------------------------+
 |                              Energy  Windows                               |
 |                              ---------------                               |
 |                   Outer:   -6.04430  to   10.92997  (eV)                   |
 |                   Inner:   -6.50000  to    5.00000  (eV)                   |
 +----------------------------------------------------------------------------+
   Number of target bands to extract:   22

                   Unitarised projection of Wannier functions                  
                   ------------------------------------------                  
   A_mn = <psi_m|g_n> --> S = A.A^+ --> U = S^-1/2.A
   In dis_project... done
   Using an inner window (linner = T)
   In dis_proj_froz... done

                   Extraction of optimally-connected subspace                  
                   ------------------------------------------                  
 +---------------------------------------------------------------------+<-- DIS
 |  Iter     Omega_I(i-1)      Omega_I(i)      Delta (frac.)    Time   |<-- DIS
 +---------------------------------------------------------------------+<-- DIS
       1      52.35342314      48.04268149       8.973E-02      7.41    <-- DIS
       2      48.28510189      47.22025628       2.255E-02      7.80    <-- DIS
       3      47.49721623      46.73350688       1.634E-02      8.20    <-- DIS
       4      46.93655549      46.41879126       1.115E-02      8.58    <-- DIS
       5      46.55127779      46.20707217       7.449E-03      8.97    <-- DIS
       6      46.28829326      46.06039718       4.948E-03      9.36    <-- DIS
       7      46.10771958      45.95622652       3.296E-03      9.74    <-- DIS
       8      45.98218946      45.88060945       2.214E-03     10.14    <-- DIS
       9      45.89353159      45.82464053       1.503E-03     10.52    <-- DIS
      10      45.82980714      45.78248584       1.034E-03     10.91    <-- DIS
      11      45.78316882      45.75023562       7.198E-04     11.31    <-- DIS
      12      45.74842398      45.72521522       5.076E-04     11.69    <-- DIS
      13      45.72209971      45.70555998       3.619E-04     12.09    <-- DIS
      14      45.70184217      45.68994693       2.603E-04     12.47    <-- DIS
      15      45.68603182      45.67742187       1.885E-04     12.86    <-- DIS
      16      45.67353640      45.66728591       1.369E-04     13.24    <-- DIS
      17      45.66355114      45.65901975       9.924E-05     13.63    <-- DIS
      18      45.65549455      45.65223229       7.146E-05     14.03    <-- DIS
      19      45.64893964      45.64662530       5.070E-05     14.41    <-- DIS
      20      45.64356805      45.64196870       3.504E-05     14.80    <-- DIS
      21      45.63913892      45.63808313       2.313E-05     15.19    <-- DIS
      22      45.63546753      45.63482735       1.403E-05     15.57    <-- DIS
      23      45.63241048      45.63208914       7.042E-06     15.96    <-- DIS
      24      45.62985517      45.62977862       1.678E-06     16.35    <-- DIS
      25      45.62771226      45.62782328      -2.433E-06     16.74    <-- DIS
      26      45.62591024      45.62616418      -5.566E-06     17.12    <-- DIS
      27      45.62439136      45.62475315      -7.930E-06     17.51    <-- DIS
      28      45.62310867      45.62355060      -9.686E-06     17.90    <-- DIS
      29      45.62202374      45.62252379      -1.096E-05     18.29    <-- DIS
      30      45.62110493      45.62164558      -1.185E-05     18.68    <-- DIS
      31      45.62032605      45.62089332      -1.243E-05     19.07    <-- DIS
      32      45.61966532      45.62024807      -1.277E-05     19.46    <-- DIS
      33      45.61910456      45.61969394      -1.292E-05     19.84    <-- DIS
      34      45.61862854      45.61921753      -1.291E-05     20.23    <-- DIS
      35      45.61822446      45.61880752      -1.278E-05     20.62    <-- DIS
      36      45.61788153      45.61845436      -1.256E-05     21.01    <-- DIS
      37      45.61759063      45.61814989      -1.226E-05     21.40    <-- DIS
      38      45.61734404      45.61788723      -1.191E-05     21.80    <-- DIS
      39      45.61713521      45.61766047      -1.151E-05     22.19    <-- DIS
      40      45.61695856      45.61746458      -1.109E-05     22.57    <-- DIS
      41      45.61680937      45.61729527      -1.065E-05     22.97    <-- DIS
      42      45.61668358      45.61714887      -1.020E-05     23.35    <-- DIS
      43      45.61657776      45.61702220      -9.743E-06     23.74    <-- DIS
      44      45.61648896      45.61691257      -9.286E-06     24.13    <-- DIS
      45      45.61641466      45.61681764      -8.834E-06     24.53    <-- DIS
      46      45.61635272      45.61673542      -8.389E-06     24.92    <-- DIS
      47      45.61630130      45.61666418      -7.955E-06     25.31    <-- DIS
      48      45.61625882      45.61660244      -7.533E-06     25.71    <-- DIS
      49      45.61622393      45.61654891      -7.124E-06     26.14    <-- DIS
      50      45.61619549      45.61650250      -6.730E-06     26.54    <-- DIS
      51      45.61617251      45.61646224      -6.351E-06     26.93    <-- DIS
      52      45.61615414      45.61642732      -5.988E-06     27.31    <-- DIS
      53      45.61613966      45.61639701      -5.642E-06     27.70    <-- DIS
      54      45.61612846      45.61637071      -5.311E-06     28.09    <-- DIS
      55      45.61612000      45.61634789      -4.996E-06     28.48    <-- DIS
      56      45.61611384      45.61632807      -4.696E-06     28.87    <-- DIS
      57      45.61610958      45.61631086      -4.412E-06     29.26    <-- DIS
      58      45.61610692      45.61629592      -4.143E-06     29.64    <-- DIS
      59      45.61610555      45.61628295      -3.889E-06     30.03    <-- DIS
      60      45.61610526      45.61627168      -3.648E-06     30.42    <-- DIS
      61      45.61610583      45.61626189      -3.421E-06     30.81    <-- DIS
      62      45.61610710      45.61625338      -3.207E-06     31.21    <-- DIS
      63      45.61610892      45.61624599      -3.005E-06     31.60    <-- DIS
      64      45.61611117      45.61623957      -2.815E-06     31.99    <-- DIS
      65      45.61611375      45.61623400      -2.636E-06     32.38    <-- DIS
      66      45.61611658      45.61622915      -2.468E-06     32.76    <-- DIS
      67      45.61611958      45.61622493      -2.310E-06     33.15    <-- DIS
      68      45.61612269      45.61622127      -2.161E-06     33.54    <-- DIS
      69      45.61612586      45.61621809      -2.022E-06     33.93    <-- DIS
      70      45.61612906      45.61621532      -1.891E-06     34.31    <-- DIS
      71      45.61613225      45.61621292      -1.768E-06     34.71    <-- DIS
      72      45.61613541      45.61621083      -1.653E-06     35.10    <-- DIS
      73      45.61613851      45.61620901      -1.546E-06     35.50    <-- DIS
      74      45.61614153      45.61620743      -1.445E-06     35.89    <-- DIS
      75      45.61614447      45.61620606      -1.350E-06     36.28    <-- DIS
      76      45.61614732      45.61620486      -1.261E-06     36.67    <-- DIS
      77      45.61615006      45.61620382      -1.179E-06     37.05    <-- DIS
      78      45.61615270      45.61620292      -1.101E-06     37.44    <-- DIS
      79      45.61615522      45.61620213      -1.028E-06     37.83    <-- DIS
      80      45.61615763      45.61620145      -9.606E-07     38.21    <-- DIS
      81      45.61615994      45.61620086      -8.971E-07     38.60    <-- DIS
      82      45.61616213      45.61620034      -8.377E-07     38.99    <-- DIS
      83      45.61616421      45.61619989      -7.822E-07     39.38    <-- DIS
      84      45.61616618      45.61619950      -7.304E-07     39.76    <-- DIS
      85      45.61616806      45.61619916      -6.819E-07     40.15    <-- DIS
      86      45.61616983      45.61619887      -6.366E-07     40.54    <-- DIS
      87      45.61617150      45.61619861      -5.943E-07     40.93    <-- DIS
      88      45.61617308      45.61619839      -5.547E-07     41.33    <-- DIS
      89      45.61617457      45.61619819      -5.178E-07     41.71    <-- DIS
      90      45.61617598      45.61619802      -4.833E-07     42.10    <-- DIS
      91      45.61617730      45.61619788      -4.511E-07     42.48    <-- DIS
      92      45.61617854      45.61619775      -4.210E-07     42.87    <-- DIS
      93      45.61617971      45.61619764      -3.929E-07     43.26    <-- DIS
      94      45.61618081      45.61619754      -3.667E-07     43.65    <-- DIS
      95      45.61618185      45.61619746      -3.422E-07     44.04    <-- DIS
      96      45.61618282      45.61619738      -3.193E-07     44.43    <-- DIS
      97      45.61618373      45.61619732      -2.980E-07     44.82    <-- DIS
      98      45.61618458      45.61619726      -2.781E-07     45.20    <-- DIS
      99      45.61618538      45.61619721      -2.595E-07     45.59    <-- DIS
     100      45.61618613      45.61619717      -2.421E-07     45.99    <-- DIS
     101      45.61618683      45.61619714      -2.259E-07     46.37    <-- DIS
     102      45.61618749      45.61619710      -2.108E-07     46.76    <-- DIS
     103      45.61618811      45.61619708      -1.966E-07     47.15    <-- DIS
     104      45.61618868      45.61619705      -1.835E-07     47.53    <-- DIS
     105      45.61618922      45.61619703      -1.712E-07     47.92    <-- DIS
     106      45.61618973      45.61619701      -1.597E-07     48.30    <-- DIS
     107      45.61619020      45.61619700      -1.490E-07     48.70    <-- DIS
     108      45.61619064      45.61619698      -1.390E-07     49.08    <-- DIS
     109      45.61619106      45.61619697      -1.297E-07     49.47    <-- DIS
     110      45.61619144      45.61619696      -1.210E-07     49.86    <-- DIS
     111      45.61619180      45.61619695      -1.129E-07     50.25    <-- DIS
     112      45.61619214      45.61619695      -1.053E-07     50.64    <-- DIS
     113      45.61619246      45.61619694      -9.825E-08     51.03    <-- DIS
     114      45.61619275      45.61619693      -9.166E-08     51.42    <-- DIS
     115      45.61619303      45.61619693      -8.551E-08     51.81    <-- DIS
     116      45.61619328      45.61619692      -7.977E-08     52.19    <-- DIS
     117      45.61619352      45.61619692      -7.442E-08     52.58    <-- DIS
     118      45.61619375      45.61619692      -6.942E-08     52.97    <-- DIS
     119      45.61619396      45.61619691      -6.476E-08     53.36    <-- DIS
     120      45.61619415      45.61619691      -6.042E-08     53.75    <-- DIS
     121      45.61619434      45.61619691      -5.636E-08     54.13    <-- DIS
     122      45.61619451      45.61619691      -5.258E-08     54.52    <-- DIS
     123      45.61619467      45.61619690      -4.905E-08     54.91    <-- DIS
     124      45.61619482      45.61619690      -4.576E-08     55.29    <-- DIS
     125      45.61619495      45.61619690      -4.268E-08     55.71    <-- DIS
     126      45.61619508      45.61619690      -3.982E-08     56.10    <-- DIS
     127      45.61619520      45.61619690      -3.714E-08     56.48    <-- DIS
     128      45.61619532      45.61619690      -3.465E-08     56.87    <-- DIS
     129      45.61619542      45.61619690      -3.232E-08     57.26    <-- DIS
     130      45.61619552      45.61619690      -3.015E-08     57.65    <-- DIS
     131      45.61619561      45.61619690      -2.813E-08     58.04    <-- DIS
     132      45.61619570      45.61619690      -2.624E-08     58.43    <-- DIS
     133      45.61619578      45.61619690      -2.448E-08     58.82    <-- DIS
     134      45.61619585      45.61619689      -2.283E-08     59.21    <-- DIS
     135      45.61619592      45.61619689      -2.130E-08     59.59    <-- DIS
     136      45.61619599      45.61619689      -1.987E-08     59.98    <-- DIS
     137      45.61619605      45.61619689      -1.853E-08     60.38    <-- DIS
     138      45.61619611      45.61619689      -1.729E-08     60.77    <-- DIS
     139      45.61619616      45.61619689      -1.613E-08     61.16    <-- DIS
     140      45.61619621      45.61619689      -1.505E-08     61.55    <-- DIS
     141      45.61619625      45.61619689      -1.403E-08     61.94    <-- DIS
     142      45.61619630      45.61619689      -1.309E-08     62.34    <-- DIS
     143      45.61619634      45.61619689      -1.221E-08     62.73    <-- DIS
     144      45.61619637      45.61619689      -1.139E-08     63.12    <-- DIS
     145      45.61619641      45.61619689      -1.063E-08     63.51    <-- DIS
     146      45.61619644      45.61619689      -9.913E-09     63.89    <-- DIS
     147      45.61619647      45.61619689      -9.247E-09     64.28    <-- DIS
     148      45.61619650      45.61619689      -8.626E-09     64.68    <-- DIS
     149      45.61619653      45.61619689      -8.047E-09     65.06    <-- DIS
     150      45.61619655      45.61619689      -7.506E-09     65.45    <-- DIS
     151      45.61619657      45.61619689      -7.002E-09     65.84    <-- DIS
     152      45.61619659      45.61619689      -6.532E-09     66.22    <-- DIS
     153      45.61619661      45.61619689      -6.093E-09     66.61    <-- DIS
     154      45.61619663      45.61619689      -5.684E-09     67.00    <-- DIS
     155      45.61619665      45.61619689      -5.302E-09     67.39    <-- DIS
     156      45.61619667      45.61619689      -4.946E-09     67.77    <-- DIS
     157      45.61619668      45.61619689      -4.614E-09     68.16    <-- DIS
     158      45.61619670      45.61619689      -4.304E-09     68.54    <-- DIS
     159      45.61619671      45.61619689      -4.014E-09     68.94    <-- DIS
     160      45.61619672      45.61619689      -3.745E-09     69.32    <-- DIS
     161      45.61619673      45.61619689      -3.493E-09     69.71    <-- DIS
     162      45.61619674      45.61619689      -3.259E-09     70.10    <-- DIS
     163      45.61619675      45.61619689      -3.040E-09     70.49    <-- DIS
     164      45.61619676      45.61619689      -2.835E-09     70.88    <-- DIS
     165      45.61619677      45.61619689      -2.645E-09     71.27    <-- DIS
     166      45.61619678      45.61619689      -2.467E-09     71.66    <-- DIS
     167      45.61619679      45.61619689      -2.302E-09     72.04    <-- DIS
     168      45.61619679      45.61619689      -2.147E-09     72.43    <-- DIS
     169      45.61619680      45.61619689      -2.003E-09     72.82    <-- DIS
     170      45.61619681      45.61619689      -1.868E-09     73.21    <-- DIS
     171      45.61619681      45.61619689      -1.743E-09     73.60    <-- DIS
     172      45.61619682      45.61619689      -1.626E-09     73.99    <-- DIS
     173      45.61619682      45.61619689      -1.516E-09     74.37    <-- DIS
     174      45.61619683      45.61619689      -1.415E-09     74.76    <-- DIS
     175      45.61619683      45.61619689      -1.320E-09     75.15    <-- DIS
     176      45.61619684      45.61619689      -1.231E-09     75.53    <-- DIS
     177      45.61619684      45.61619689      -1.148E-09     75.92    <-- DIS
     178      45.61619684      45.61619689      -1.071E-09     76.31    <-- DIS
     179      45.61619685      45.61619689      -9.991E-10     76.70    <-- DIS
     180      45.61619685      45.61619689      -9.320E-10     77.09    <-- DIS
     181      45.61619685      45.61619689      -8.694E-10     77.48    <-- DIS
     182      45.61619686      45.61619689      -8.110E-10     77.86    <-- DIS
     183      45.61619686      45.61619689      -7.565E-10     78.25    <-- DIS
     184      45.61619686      45.61619689      -7.057E-10     78.64    <-- DIS
     185      45.61619686      45.61619689      -6.583E-10     79.03    <-- DIS
     186      45.61619686      45.61619689      -6.140E-10     79.42    <-- DIS
     187      45.61619687      45.61619689      -5.728E-10     79.83    <-- DIS
     188      45.61619687      45.61619689      -5.343E-10     80.22    <-- DIS
     189      45.61619687      45.61619689      -4.984E-10     80.60    <-- DIS
     190      45.61619687      45.61619689      -4.649E-10     80.99    <-- DIS
     191      45.61619687      45.61619689      -4.337E-10     81.39    <-- DIS
     192      45.61619687      45.61619689      -4.046E-10     81.78    <-- DIS
     193      45.61619688      45.61619689      -3.774E-10     82.16    <-- DIS
     194      45.61619688      45.61619689      -3.520E-10     82.55    <-- DIS
     195      45.61619688      45.61619689      -3.284E-10     82.94    <-- DIS
     196      45.61619688      45.61619689      -3.063E-10     83.32    <-- DIS
     197      45.61619688      45.61619689      -2.857E-10     83.71    <-- DIS
     198      45.61619688      45.61619689      -2.665E-10     84.10    <-- DIS
     199      45.61619688      45.61619689      -2.486E-10     84.49    <-- DIS
     200      45.61619688      45.61619689      -2.319E-10     84.87    <-- DIS
     201      45.61619688      45.61619689      -2.163E-10     85.26    <-- DIS
     202      45.61619688      45.61619689      -2.018E-10     85.67    <-- DIS
     203      45.61619688      45.61619689      -1.883E-10     86.06    <-- DIS
     204      45.61619688      45.61619689      -1.756E-10     86.45    <-- DIS
     205      45.61619688      45.61619689      -1.638E-10     86.84    <-- DIS
     206      45.61619689      45.61619689      -1.528E-10     87.22    <-- DIS
     207      45.61619689      45.61619689      -1.425E-10     87.61    <-- DIS
     208      45.61619689      45.61619689      -1.330E-10     88.00    <-- DIS
     209      45.61619689      45.61619689      -1.240E-10     88.39    <-- DIS
     210      45.61619689      45.61619689      -1.157E-10     88.77    <-- DIS
     211      45.61619689      45.61619689      -1.079E-10     89.16    <-- DIS
     212      45.61619689      45.61619689      -1.007E-10     89.55    <-- DIS
     213      45.61619689      45.61619689      -9.391E-11     89.94    <-- DIS
     214      45.61619689      45.61619689      -8.760E-11     90.33    <-- DIS
     215      45.61619689      45.61619689      -8.172E-11     90.72    <-- DIS

             <<<      Delta < 1.000E-10  over  3 iterations     >>>
             <<< Disentanglement convergence criteria satisfied >>>

        Final Omega_I    45.61619689 (Ang^2)

 +----------------------------------------------------------------------------+

 Time to disentangle bands     85.772 (sec)

 done

 
 *------------------------------- WANNIERISE ---------------------------------*
 +--------------------------------------------------------------------+<-- CONV
 | Iter  Delta Spread     RMS Gradient      Spread (Ang^2)      Time  |<-- CONV
 +--------------------------------------------------------------------+<-- CONV
 
 ------------------------------------------------------------------------------
 Initial State
  WF centre and spread    1  (  2.650600,  2.992900,  1.441100 )     1.08141751
  WF centre and spread    2  (  2.650600,  2.992900,  1.441100 )     1.08090200
  WF centre and spread    3  (  2.650600,  2.992900,  1.441100 )     0.86860783
  WF centre and spread    4  (  2.650600,  2.992900,  1.441100 )     1.03730032
  WF centre and spread    5  (  2.650600,  2.992900,  1.441100 )     0.87609918
  WF centre and spread    6  ( -0.000000,  5.985800,  0.000000 )     1.08136440
  WF centre and spread    7  ( -0.000000,  5.985800, -0.000000 )     1.08074016
  WF centre and spread    8  (  0.000000,  5.985800,  0.000000 )     0.86863563
  WF centre and spread    9  (  0.000000,  5.985800, -0.000000 )     1.03735318
  WF centre and spread   10  ( -0.000000,  5.985800,  0.000000 )     0.87609568
  WF centre and spread   11  (  3.659116,  5.177955,  1.441094 )     3.62144202
  WF centre and spread   12  (  3.604362,  5.055234,  1.441095 )     3.37254638
  WF centre and spread   13  (  3.602568,  5.190265,  1.441168 )     2.84368421
  WF centre and spread   14  ( -3.659116, -5.177955,  1.441107 )     3.62144223
  WF centre and spread   15  ( -3.604362, -5.055234,  1.441105 )     3.37254688
  WF centre and spread   16  ( -3.602568, -5.190265,  1.441032 )     2.84368441
  WF centre and spread   17  ( -1.008478,  8.170835, -0.000005 )     3.62184708
  WF centre and spread   18  ( -0.953773,  8.048119,  0.000014 )     3.37239373
  WF centre and spread   19  ( -0.951976,  8.183178,  0.000023 )     2.84348349
  WF centre and spread   20  (  6.309678, -2.185035,  0.000005 )     3.62184849
  WF centre and spread   21  (  6.254973, -2.062319, -0.000014 )     3.37239155
  WF centre and spread   22  (  6.253176, -2.197378, -0.000023 )     2.84348311
  Sum of centres and spreads ( 29.156600, 62.850902, 15.852101 )    49.23930947
 
      0     0.492E+02     0.0000000000       49.2393094744      91.94  <-- CONV
        O_D=      0.0828075 O_OD=      3.5403051 O_TOT=     49.2393095 <-- SPRD
 ------------------------------------------------------------------------------
 Cycle:      1
  WF centre and spread    1  (  2.650600,  2.992900,  1.441100 )     1.06777442
  WF centre and spread    2  (  2.650600,  2.992900,  1.441100 )     1.07411665
  WF centre and spread    3  (  2.650600,  2.992900,  1.441100 )     0.86228043
  WF centre and spread    4  (  2.650600,  2.992900,  1.441100 )     1.02584085
  WF centre and spread    5  (  2.650600,  2.992900,  1.441100 )     0.86351707
  WF centre and spread    6  ( -0.000000,  5.985800, -0.000000 )     1.06774954
  WF centre and spread    7  ( -0.000000,  5.985800, -0.000000 )     1.07395562
  WF centre and spread    8  (  0.000000,  5.985800,  0.000000 )     0.86231455
  WF centre and spread    9  (  0.000000,  5.985800, -0.000000 )     1.02589269
  WF centre and spread   10  ( -0.000000,  5.985800,  0.000000 )     0.86351855
  WF centre and spread   11  (  3.659328,  5.178123,  1.441093 )     3.60299478
  WF centre and spread   12  (  3.604650,  5.054718,  1.441095 )     3.36166733
  WF centre and spread   13  (  3.602834,  5.190440,  1.441168 )     2.83863026
  WF centre and spread   14  ( -3.659328, -5.178123,  1.441107 )     3.60299478
  WF centre and spread   15  ( -3.604650, -5.054718,  1.441105 )     3.36166801
  WF centre and spread   16  ( -3.602834, -5.190440,  1.441032 )     2.83863041
  WF centre and spread   17  ( -1.008690,  8.171004, -0.000005 )     3.60341850
  WF centre and spread   18  ( -0.954063,  8.047603,  0.000013 )     3.36158540
  WF centre and spread   19  ( -0.952241,  8.183353,  0.000023 )     2.83843258
  WF centre and spread   20  (  6.309890, -2.185204,  0.000005 )     3.60341974
  WF centre and spread   21  (  6.255263, -2.061803, -0.000013 )     3.36158363
  WF centre and spread   22  (  6.253441, -2.197553, -0.000023 )     2.83843204
  Sum of centres and spreads ( 29.156599, 62.850902, 15.852101 )    49.00041781
 
      1    -0.239E+00     0.3316003766       49.0004178058      92.91  <-- CONV
        O_D=      0.0643523 O_OD=      3.3198686 O_TOT=     49.0004178 <-- SPRD
 Delta: O_D= -0.1845518E-01 O_OD= -0.2204365E+00 O_TOT= -0.2388917E+00 <-- DLTA
 ------------------------------------------------------------------------------
 Cycle:    100
  WF centre and spread    1  (  2.650600,  2.992900,  1.441100 )     1.04242236
  WF centre and spread    2  (  2.650600,  2.992900,  1.441100 )     1.08148008
  WF centre and spread    3  (  2.650600,  2.992900,  1.441100 )     0.83704498
  WF centre and spread    4  (  2.650600,  2.992900,  1.441100 )     0.95129890
  WF centre and spread    5  (  2.650600,  2.992900,  1.441100 )     0.81926736
  WF centre and spread    6  ( -0.000000,  5.985800, -0.000000 )     1.04238115
  WF centre and spread    7  ( -0.000000,  5.985800, -0.000000 )     1.08129652
  WF centre and spread    8  (  0.000000,  5.985800,  0.000000 )     0.83701784
  WF centre and spread    9  (  0.000000,  5.985800,  0.000000 )     0.95133954
  WF centre and spread   10  ( -0.000000,  5.985800,  0.000000 )     0.81926746
  WF centre and spread   11  (  3.651739,  5.185319,  1.441094 )     3.55164604
  WF centre and spread   12  (  3.602241,  5.047859,  1.441096 )     3.33758891
  WF centre and spread   13  (  3.608094,  5.194666,  1.441168 )     2.81965816
  WF centre and spread   14  ( -3.651739, -5.185319,  1.441106 )     3.55164605
  WF centre and spread   15  ( -3.602241, -5.047859,  1.441105 )     3.33758890
  WF centre and spread   16  ( -3.608094, -5.194666,  1.441032 )     2.81965816
  WF centre and spread   17  ( -1.001100,  8.178204, -0.000005 )     3.55198379
  WF centre and spread   18  ( -0.951656,  8.040746,  0.000013 )     3.33747085
  WF centre and spread   19  ( -0.957503,  8.187580,  0.000020 )     2.81948730
  WF centre and spread   20  (  6.302300, -2.192403,  0.000005 )     3.55198376
  WF centre and spread   21  (  6.252856, -2.054945, -0.000013 )     3.33747088
  WF centre and spread   22  (  6.258703, -2.201779, -0.000020 )     2.81948730
  Sum of centres and spreads ( 29.156599, 62.850902, 15.852101 )    48.29848627
 
    100    -0.156E-06     0.0005868678       48.2984862655     186.60  <-- CONV
        O_D=      0.0338104 O_OD=      2.6484790 O_TOT=     48.2984863 <-- SPRD
 Delta: O_D= -0.9108939E-07 O_OD= -0.6529295E-07 O_TOT= -0.1563823E-06 <-- DLTA
 ------------------------------------------------------------------------------

 done

 Cycle:    200
  WF centre and spread    1  (  2.650600,  2.992900,  1.441100 )     1.04247554
  WF centre and spread    2  (  2.650600,  2.992900,  1.441100 )     1.08161923
  WF centre and spread    3  (  2.650600,  2.992900,  1.441100 )     0.83704766
  WF centre and spread    4  (  2.650600,  2.992900,  1.441100 )     0.95128376
  WF centre and spread    5  (  2.650600,  2.992900,  1.441100 )     0.81926149
  WF centre and spread    6  ( -0.000000,  5.985800,  0.000000 )     1.04243436
  WF centre and spread    7  ( -0.000000,  5.985800, -0.000000 )     1.08143560
  WF centre and spread    8  (  0.000000,  5.985800,  0.000000 )     0.83702052
  WF centre and spread    9  (  0.000000,  5.985800,  0.000000 )     0.95132438
  WF centre and spread   10  ( -0.000000,  5.985800,  0.000000 )     0.81926157
  WF centre and spread   11  (  3.651723,  5.185326,  1.441094 )     3.55162755
  WF centre and spread   12  (  3.602236,  5.047849,  1.441096 )     3.33753948
  WF centre and spread   13  (  3.608103,  5.194671,  1.441168 )     2.81963842
  WF centre and spread   14  ( -3.651723, -5.185326,  1.441106 )     3.55162756
  WF centre and spread   15  ( -3.602236, -5.047849,  1.441105 )     3.33753947
  WF centre and spread   16  ( -3.608103, -5.194671,  1.441032 )     2.81963842
  WF centre and spread   17  ( -1.001084,  8.178210, -0.000005 )     3.55196536
  WF centre and spread   18  ( -0.951651,  8.040737,  0.000013 )     3.33742136
  WF centre and spread   19  ( -0.957512,  8.187585,  0.000020 )     2.81946755
  WF centre and spread   20  (  6.302284, -2.192410,  0.000005 )     3.55196533
  WF centre and spread   21  (  6.252851, -2.054936, -0.000013 )     3.33742139
  WF centre and spread   22  (  6.258712, -2.201784, -0.000020 )     2.81946755
  Sum of centres and spreads ( 29.156599, 62.850902, 15.852101 )    48.29848355
 
    200    -0.125E-08     0.0001087901       48.2984835527     268.56  <-- CONV
        O_D=      0.0338093 O_OD=      2.6484773 O_TOT=     48.2984836 <-- SPRD
 Delta: O_D= -0.3798353E-09 O_OD= -0.8747869E-09 O_TOT= -0.1254620E-08 <-- DLTA
 ------------------------------------------------------------------------------

 done


             <<<     Delta < 1.000E-10  over  3 iterations     >>>
             <<< Wannierisation convergence criteria satisfied >>>

 Final State
  WF centre and spread    1  (  2.650600,  2.992900,  1.441100 )     1.04247602
  WF centre and spread    2  (  2.650600,  2.992900,  1.441100 )     1.08162049
  WF centre and spread    3  (  2.650600,  2.992900,  1.441100 )     0.83704762
  WF centre and spread    4  (  2.650600,  2.992900,  1.441100 )     0.95128367
  WF centre and spread    5  (  2.650600,  2.992900,  1.441100 )     0.81926142
  WF centre and spread    6  ( -0.000000,  5.985800,  0.000000 )     1.04243484
  WF centre and spread    7  ( -0.000000,  5.985800, -0.000000 )     1.08143686
  WF centre and spread    8  (  0.000000,  5.985800,  0.000000 )     0.83702048
  WF centre and spread    9  (  0.000000,  5.985800,  0.000000 )     0.95132429
  WF centre and spread   10  ( -0.000000,  5.985800,  0.000000 )     0.81926151
  WF centre and spread   11  (  3.651723,  5.185326,  1.441094 )     3.55162748
  WF centre and spread   12  (  3.602236,  5.047849,  1.441096 )     3.33753894
  WF centre and spread   13  (  3.608103,  5.194671,  1.441168 )     2.81963825
  WF centre and spread   14  ( -3.651723, -5.185326,  1.441106 )     3.55162749
  WF centre and spread   15  ( -3.602236, -5.047849,  1.441105 )     3.33753893
  WF centre and spread   16  ( -3.608103, -5.194671,  1.441032 )     2.81963825
  WF centre and spread   17  ( -1.001084,  8.178210, -0.000005 )     3.55196528
  WF centre and spread   18  ( -0.951651,  8.040736,  0.000013 )     3.33742083
  WF centre and spread   19  ( -0.957512,  8.187585,  0.000020 )     2.81946738
  WF centre and spread   20  (  6.302284, -2.192410,  0.000005 )     3.55196526
  WF centre and spread   21  (  6.252851, -2.054936, -0.000013 )     3.33742085
  WF centre and spread   22  (  6.258712, -2.201784, -0.000020 )     2.81946738
  Sum of centres and spreads ( 29.156599, 62.850902, 15.852101 )    48.29848354
 
         Spreads (Ang^2)       Omega I      =    45.616196892
        ================       Omega D      =     0.033809331
                               Omega OD     =     2.648477313
    Final Spread (Ang^2)       Omega Total  =    48.298483536
 ------------------------------------------------------------------------------

 Wannier centres written to file wann_centres.xyz

 ------------------------------------------------------------------------------
          Projection of Bands in Outer Window on all Wannier Functions
         --------------------------------------------------------------
                    Kpt  Band      Eigval      |Projection|^2
                 -----------------------------------------------
                     1     1      -5.925833      1.00000000
                     1     2      -4.983045      1.00000000
                     1     3      -3.728800      1.00000000
                     1     4      -3.234414      1.00000000
                     1     5      -2.893698      1.00000000
                     1     6      -2.277603      1.00000000
                     1     7      -1.084048      1.00000000
                     1     8      -0.907071      1.00000000
                     1     9      -0.885041      1.00000000
                     1    10      -0.834796      1.00000000
                     1    11      -0.575499      1.00000000
                     1    12      -0.414824      1.00000000
                     1    13      -0.330792      1.00000000
                     1    14      -0.084924      1.00000000
                     1    15       2.085981      1.00000000
                     1    16       2.893894      1.00000000
                     1    17       4.612186      1.00000000
                     1    18       5.202247      1.00000000
                     1    19       5.203240      1.00000000
                     1    20       5.449768      0.99538895
                     1    21       6.753009      0.00000000
                     1    22       6.887430      1.00000000
                     1    23       7.220956      0.99999994
                     1    24       8.708697      0.00000006
                     1    25       9.528247      0.00461105
                     2     1      -5.880147      1.00000000
                     2     2      -4.945730      1.00000000
                     2     3      -3.720869      1.00000000
                     2     4      -3.197188      1.00000000
                     2     5      -2.882247      1.00000000
                     2     6      -2.260658      1.00000000
                     2     7      -1.120192      1.00000000
                     2     8      -0.908877      1.00000000
                     2     9      -0.892432      1.00000000
                     2    10      -0.835097      1.00000000
                     2    11      -0.579140      1.00000000
                     2    12      -0.443859      1.00000000
                     2    13      -0.358717      1.00000000
                     2    14      -0.091830      1.00000000
                     2    15       2.065535      1.00000000
                     2    16       2.580850      1.00000000
                     2    17       4.593464      1.00000000
                     2    18       4.742867      1.00000000
                     2    19       5.246938      1.00000000
                     2    20       5.575569      0.99545186
                     2    21       6.458238      0.90976470
                     2    22       6.756489      0.99999996
                     2    23       6.848083      0.09023530
                     2    24       9.171212      0.00000004
                     2    25       9.475702      0.00454814
                     3     1      -5.744011      1.00000000
                     3     2      -4.835777      1.00000000
                     3     3      -3.699907      1.00000000
                     3     4      -3.089185      1.00000000
                     3     5      -2.850075      1.00000000
                     3     6      -2.209227      1.00000000
                     3     7      -1.265668      1.00000000
                     3     8      -0.918821      1.00000000
                     3     9      -0.913555      1.00000000
                     3    10      -0.846362      1.00000000
                     3    11      -0.593002      1.00000000
                     3    12      -0.518607      1.00000000
                     3    13      -0.414115      1.00000000
                     3    14      -0.110731      1.00000000
                     3    15       1.745764      1.00000000
                     3    16       2.184463      1.00000000
                     3    17       3.881008      1.00000000
                     3    18       4.449440      1.00000000
                     3    19       5.364052      1.00000000
                     3    20       5.623863      0.99581186
                     3    21       5.742284      0.98290135
                     3    22       5.762753      0.99999999
                     3    23       7.008998      0.01709865
                     3    24       9.255266      0.00418814
                     3    25      10.268921      0.00000001
                     4     1      -5.520469      1.00000000
                     4     2      -4.655800      1.00000000
                     4     3      -3.674885      1.00000000
                     4     4      -2.921486      1.00000000
                     4     5      -2.804250      1.00000000
                     4     6      -2.129367      1.00000000
                     4     7      -1.641846      1.00000000
                     4     8      -1.004321      1.00000000
                     4     9      -0.920045      1.00000000
                     4    10      -0.903915      1.00000000
                     4    11      -0.619287      1.00000000
                     4    12      -0.614751      1.00000000
                     4    13      -0.499488      1.00000000
                     4    14      -0.141038      1.00000000
                     4    15       1.143247      1.00000000
                     4    16       2.141417      1.00000000
                     4    17       2.916189      1.00000000
                     4    18       3.924017      1.00000000
                     4    19       4.638705      1.00000000
                     4    20       5.344862      0.99646541
                     4    21       5.555196      1.00000000
                     4    22       5.589491      0.99754344
                     4    23       7.275993      0.00353459
                     4    24       8.744986      0.00229023
                     4    25      10.875427      0.00016633
                     5     1      -5.214791      1.00000000
                     5     2      -4.413223      1.00000000
                     5     3      -3.659789      1.00000000
                     5     4      -2.755315      1.00000000
                     5     5      -2.722370      1.00000000
                     5     6      -2.325153      1.00000000
                     5     7      -2.030521      1.00000000
                     5     8      -1.210920      1.00000000
                     5     9      -1.079164      1.00000000
                     5    10      -0.928621      1.00000000
                     5    11      -0.679387      1.00000000
                     5    12      -0.650304      1.00000000
                     5    13      -0.606634      1.00000000
                     5    14      -0.164674      1.00000000
                     5    15       0.808390      1.00000000
                     5    16       2.060548      1.00000000
                     5    17       2.132946      1.00000000
                     5    18       3.187612      1.00000000
                     5    19       3.604700      1.00000000
                     5    20       5.261668      0.99831895
                     5    21       5.451082      0.99909683
                     5    22       5.732083      1.00000000
                     5    23       7.631792      0.00168105
                     5    24       7.979646      0.00045544
                     5    25      10.050955      0.00044772
                     6     1      -4.835636      1.00000000
                     6     2      -4.137311      1.00000000
                     6     3      -3.672029      1.00000000
                     6     4      -3.168106      1.00000000
                     6     5      -2.718992      1.00000000
                     6     6      -2.580788      1.00000000
                     6     7      -1.926012      1.00000000
                     6     8      -1.559442      1.00000000
                     6     9      -1.405070      1.00000000
                     6    10      -0.946109      1.00000000
                     6    11      -0.748119      1.00000000
                     6    12      -0.716998      1.00000000
                     6    13      -0.684419      1.00000000
                     6    14      -0.170822      1.00000000
                     6    15       0.710800      1.00000000
                     6    16       1.471931      1.00000000
                     6    17       2.131375      1.00000000
                     6    18       2.593233      1.00000000
                     6    19       2.752358      1.00000000
                     6    20       5.141310      0.99909676
                     6    21       5.195350      0.99917052
                     6    22       5.826743      1.00000000
                     6    23       7.171491      0.00016606
                     6    24       8.058229      0.00082948
                     6    25       9.354570      0.00073718
                     7     1      -4.416422      1.00000000
                     7     2      -4.223655      1.00000000
                     7     3      -3.726898      1.00000000
                     7     4      -3.583710      1.00000000
                     7     5      -2.779059      1.00000000
                     7     6      -2.736347      1.00000000
                     7     7      -1.992004      1.00000000
                     7     8      -1.826163      1.00000000
                     7     9      -1.645291      1.00000000
                     7    10      -1.011676      1.00000000
                     7    11      -0.921655      1.00000000
                     7    12      -0.761943      1.00000000
                     7    13      -0.720201      1.00000000
                     7    14      -0.172165      1.00000000
                     7    15       0.732831      1.00000000
                     7    16       1.178390      1.00000000
                     7    17       2.135692      1.00000000
                     7    18       2.181533      1.00000000
                     7    19       2.276410      1.00000000
                     7    20       4.624760      1.00000000
                     7    21       5.003318      0.99985563
                     7    22       5.727502      1.00000000
                     7    23       6.467152      0.00000000
                     7    24       8.455636      0.00000000
                     7    25       8.529705      0.00014437
                     8     1      -4.948071      1.00000000
                     8     2      -3.891583      1.00000000
                     8     3      -3.830140      1.00000000
                     8     4      -3.412956      1.00000000
                     8     5      -3.254351      1.00000000
                     8     6      -2.956935      1.00000000
                     8     7      -2.288867      1.00000000
                     8     8      -1.752361      1.00000000
                     8     9      -1.663808      1.00000000
                     8    10      -1.278138      1.00000000
                     8    11      -0.976964      1.00000000
                     8    12      -0.821411      1.00000000
                     8    13      -0.722199      1.00000000
                     8    14      -0.181301      1.00000000
                     8    15       0.814323      1.00000000
                     8    16       1.080321      1.00000000
                     8    17       1.955535      1.00000000
                     8    18       2.155980      1.00000000
                     8    19       2.251472      1.00000000
                     8    20       3.989327      1.00000000
                     8    21       4.644988      1.00000000
                     8    22       5.381597      1.00000000
                     8    23       5.911158      0.00000000
                     8    24       7.502147      0.00000000
                     8    25       8.857696      0.00000000
                     9     1      -5.446601      1.00000000
                     9     2      -4.160780      1.00000000
                     9     3      -3.965907      1.00000000
                     9     4      -3.409439      1.00000000
                     9     5      -3.377375      1.00000000
                     9     6      -2.845863      1.00000000
                     9     7      -2.323244      1.00000000
                     9     8      -1.783250      1.00000000
                     9     9      -1.723585      1.00000000
                     9    10      -1.606437      1.00000000
                     9    11      -1.002346      1.00000000
                     9    12      -0.888572      1.00000000
                     9    13      -0.642025      1.00000000
                     9    14      -0.215165      1.00000000
                     9    15       0.912298      1.00000000
                     9    16       1.067371      1.00000000
                     9    17       2.032993      1.00000000
                     9    18       2.205963      1.00000000
                     9    19       2.437686      1.00000000
                     9    20       3.372161      1.00000000
                     9    21       4.180249      1.00000000
                     9    22       4.857113      1.00000000
                     9    23       5.542179      0.00000000
                     9    24       6.667302      0.00000000
                     9    25       9.023843      0.00000000
                    10     1      -5.590765      1.00000000
                    10     2      -4.845746      1.00000000
                    10     3      -4.072805      1.00000000
                    10     4      -3.821049      1.00000000
                    10     5      -2.865800      1.00000000
                    10     6      -2.445885      1.00000000
                    10     7      -2.249418      1.00000000
                    10     8      -2.012689      1.00000000
                    10     9      -1.893882      1.00000000
                    10    10      -1.862640      1.00000000
                    10    11      -1.006722      1.00000000
                    10    12      -0.948058      1.00000000
                    10    13      -0.502605      1.00000000
                    10    14      -0.276464      1.00000000
                    10    15       1.001107      1.00000000
                    10    16       1.073264      1.00000000
                    10    17       2.310065      1.00000000
                    10    18       2.313835      1.00000000
                    10    19       2.685194      1.00000000
                    10    20       2.870862      1.00000000
                    10    21       3.777702      1.00000000
                    10    22       4.283853      1.00000000
                    10    23       5.418280      0.00000000
                    10    24       6.006552      0.00000000
                    10    25       9.380691      0.00000000
                    11     1      -5.360027      1.00000000
                    11     2      -5.360027      1.00000000
                    11     3      -4.050089      1.00000000
                    11     4      -4.050089      1.00000000
                    11     5      -2.395700      1.00000000
                    11     6      -2.395700      1.00000000
                    11     7      -2.107640      1.00000000
                    11     8      -2.107640      1.00000000
                    11     9      -2.104407      1.00000000
                    11    10      -2.104407      1.00000000
                    11    11      -0.988424      1.00000000
                    11    12      -0.988424      1.00000000
                    11    13      -0.372382      1.00000000
                    11    14      -0.372382      1.00000000
                    11    15       1.054344      1.00000000
                    11    16       1.054344      1.00000000
                    11    17       2.520986      1.00000000
                    11    18       2.520986      1.00000000
                    11    19       2.635789      1.00000000
                    11    20       2.635789      1.00000000
                    11    21       3.816273      1.00000000
                    11    22       3.816273      1.00000000
                    11    23       5.575936      0.00000000
                    11    24       5.575936      0.00000000
                    11    25       9.886720      0.00000000
                    12     1      -5.590765      1.00000000
                    12     2      -4.845746      1.00000000
                    12     3      -4.072805      1.00000000
                    12     4      -3.821049      1.00000000
                    12     5      -2.865800      1.00000000
                    12     6      -2.445885      1.00000000
                    12     7      -2.249418      1.00000000
                    12     8      -2.012689      1.00000000
                    12     9      -1.893882      1.00000000
                    12    10      -1.862640      1.00000000
                    12    11      -1.006722      1.00000000
                    12    12      -0.948058      1.00000000
                    12    13      -0.502605      1.00000000
                    12    14      -0.276464      1.00000000
                    12    15       1.001107      1.00000000
                    12    16       1.073264      1.00000000
                    12    17       2.310065      1.00000000
                    12    18       2.313835      1.00000000
                    12    19       2.685194      1.00000000
                    12    20       2.870862      1.00000000
                    12    21       3.777702      1.00000000
                    12    22       4.283853      1.00000000
                    12    23       5.418280      0.00000000
                    12    24       6.006552      0.00000000
                    12    25       9.380691      0.00000000
                    13     1      -5.446601      1.00000000
                    13     2      -4.160780      1.00000000
                    13     3      -3.965907      1.00000000
                    13     4      -3.409439      1.00000000
                    13     5      -3.377375      1.00000000
                    13     6      -2.845863      1.00000000
                    13     7      -2.323244      1.00000000
                    13     8      -1.783250      1.00000000
                    13     9      -1.723585      1.00000000
                    13    10      -1.606437      1.00000000
                    13    11      -1.002346      1.00000000
                    13    12      -0.888572      1.00000000
                    13    13      -0.642025      1.00000000
                    13    14      -0.215165      1.00000000
                    13    15       0.912298      1.00000000
                    13    16       1.067371      1.00000000
                    13    17       2.032993      1.00000000
                    13    18       2.205963      1.00000000
                    13    19       2.437686      1.00000000
                    13    20       3.372161      1.00000000
                    13    21       4.180249      1.00000000
                    13    22       4.857113      1.00000000
                    13    23       5.542179      0.00000000
                    13    24       6.667302      0.00000000
                    13    25       9.023843      0.00000000
                    14     1      -4.948071      1.00000000
                    14     2      -3.891583      1.00000000
                    14     3      -3.830140      1.00000000
                    14     4      -3.412956      1.00000000
                    14     5      -3.254351      1.00000000
                    14     6      -2.956935      1.00000000
                    14     7      -2.288867      1.00000000
                    14     8      -1.752361      1.00000000
                    14     9      -1.663808      1.00000000
                    14    10      -1.278138      1.00000000
                    14    11      -0.976964      1.00000000
                    14    12      -0.821411      1.00000000
                    14    13      -0.722199      1.00000000
                    14    14      -0.181301      1.00000000
                    14    15       0.814323      1.00000000
                    14    16       1.080321      1.00000000
                    14    17       1.955535      1.00000000
                    14    18       2.155980      1.00000000
                    14    19       2.251472      1.00000000
                    14    20       3.989327      1.00000000
                    14    21       4.644988      1.00000000
                    14    22       5.381597      1.00000000
                    14    23       5.911158      0.00000000
                    14    24       7.502147      0.00000000
                    14    25       8.857696      0.00000000
                    15     1      -4.416422      1.00000000
                    15     2      -4.223655      1.00000000
                    15     3      -3.726898      1.00000000
                    15     4      -3.583710      1.00000000
                    15     5      -2.779059      1.00000000
                    15     6      -2.736347      1.00000000
                    15     7      -1.992004      1.00000000
                    15     8      -1.826163      1.00000000
                    15     9      -1.645291      1.00000000
                    15    10      -1.011676      1.00000000
                    15    11      -0.921655      1.00000000
                    15    12      -0.761943      1.00000000
                    15    13      -0.720201      1.00000000
                    15    14      -0.172165      1.00000000
                    15    15       0.732831      1.00000000
                    15    16       1.178390      1.00000000
                    15    17       2.135692      1.00000000
                    15    18       2.181533      1.00000000
                    15    19       2.276410      1.00000000
                    15    20       4.624760      1.00000000
                    15    21       5.003318      0.99985563
                    15    22       5.727502      1.00000000
                    15    23       6.467152      0.00000000
                    15    24       8.455636      0.00000000
                    15    25       8.529705      0.00014437
                    16     1      -4.835636      1.00000000
                    16     2      -4.137311      1.00000000
                    16     3      -3.672029      1.00000000
                    16     4      -3.168106      1.00000000
                    16     5      -2.718992      1.00000000
                    16     6      -2.580788      1.00000000
                    16     7      -1.926012      1.00000000
                    16     8      -1.559442      1.00000000
                    16     9      -1.405070      1.00000000
                    16    10      -0.946109      1.00000000
                    16    11      -0.748119      1.00000000
                    16    12      -0.716998      1.00000000
                    16    13      -0.684419      1.00000000
                    16    14      -0.170822      1.00000000
                    16    15       0.710800      1.00000000
                    16    16       1.471931      1.00000000
                    16    17       2.131375      1.00000000
                    16    18       2.593233      1.00000000
                    16    19       2.752358      1.00000000
                    16    20       5.141310      0.99909676
                    16    21       5.195350      0.99917045
                    16    22       5.826743      1.00000000
                    16    23       7.171491      0.00016607
                    16    24       8.058229      0.00082955
                    16    25       9.354570      0.00073717
                    17     1      -5.214791      1.00000000
                    17     2      -4.413223      1.00000000
                    17     3      -3.659789      1.00000000
                    17     4      -2.755315      1.00000000
                    17     5      -2.722370      1.00000000
                    17     6      -2.325153      1.00000000
                    17     7      -2.030521      1.00000000
                    17     8      -1.210920      1.00000000
                    17     9      -1.079164      1.00000000
                    17    10      -0.928621      1.00000000
                    17    11      -0.679387      1.00000000
                    17    12      -0.650304      1.00000000
                    17    13      -0.606634      1.00000000
                    17    14      -0.164674      1.00000000
                    17    15       0.808390      1.00000000
                    17    16       2.060548      1.00000000
                    17    17       2.132946      1.00000000
                    17    18       3.187612      1.00000000
                    17    19       3.604700      1.00000000
                    17    20       5.261668      0.99831854
                    17    21       5.451082      0.99909690
                    17    22       5.732083      1.00000000
                    17    23       7.631792      0.00168146
                    17    24       7.979646      0.00045539
                    17    25      10.050955      0.00044771
                    18     1      -5.520469      1.00000000
                    18     2      -4.655800      1.00000000
                    18     3      -3.674885      1.00000000
                    18     4      -2.921486      1.00000000
                    18     5      -2.804250      1.00000000
                    18     6      -2.129367      1.00000000
                    18     7      -1.641846      1.00000000
                    18     8      -1.004321      1.00000000
                    18     9      -0.920045      1.00000000
                    18    10      -0.903915      1.00000000
                    18    11      -0.619287      1.00000000
                    18    12      -0.614751      1.00000000
                    18    13      -0.499488      1.00000000
                    18    14      -0.141038      1.00000000
                    18    15       1.143247      1.00000000
                    18    16       2.141417      1.00000000
                    18    17       2.916189      1.00000000
                    18    18       3.924017      1.00000000
                    18    19       4.638705      1.00000000
                    18    20       5.344862      0.99646371
                    18    21       5.555196      1.00000000
                    18    22       5.589491      0.99754369
                    18    23       7.275993      0.00353629
                    18    24       8.744986      0.00228998
                    18    25      10.875427      0.00016633
                    19     1      -5.744011      1.00000000
                    19     2      -4.835777      1.00000000
                    19     3      -3.699907      1.00000000
                    19     4      -3.089185      1.00000000
                    19     5      -2.850075      1.00000000
                    19     6      -2.209227      1.00000000
                    19     7      -1.265668      1.00000000
                    19     8      -0.918821      1.00000000
                    19     9      -0.913555      1.00000000
                    19    10      -0.846362      1.00000000
                    19    11      -0.593002      1.00000000
                    19    12      -0.518607      1.00000000
                    19    13      -0.414115      1.00000000
                    19    14      -0.110731      1.00000000
                    19    15       1.745764      1.00000000
                    19    16       2.184463      1.00000000
                    19    17       3.881008      1.00000000
                    19    18       4.449440      1.00000000
                    19    19       5.364052      1.00000000
                    19    20       5.623863      0.99581238
                    19    21       5.742284      0.98289131
                    19    22       5.762753      0.99999999
                    19    23       7.008998      0.01710869
                    19    24       9.255266      0.00418762
                    19    25      10.268921      0.00000001
                    20     1      -5.880147      1.00000000
                    20     2      -4.945730      1.00000000
                    20     3      -3.720869      1.00000000
                    20     4      -3.197188      1.00000000
                    20     5      -2.882247      1.00000000
                    20     6      -2.260658      1.00000000
                    20     7      -1.120192      1.00000000
                    20     8      -0.908877      1.00000000
                    20     9      -0.892432      1.00000000
                    20    10      -0.835097      1.00000000
                    20    11      -0.579140      1.00000000
                    20    12      -0.443859      1.00000000
                    20    13      -0.358717      1.00000000
                    20    14      -0.091830      1.00000000
                    20    15       2.065535      1.00000000
                    20    16       2.580850      1.00000000
                    20    17       4.593464      1.00000000
                    20    18       4.742867      1.00000000
                    20    19       5.246938      1.00000000
                    20    20       5.575569      0.99545230
                    20    21       6.458238      0.90972966
                    20    22       6.756489      0.99999996
                    20    23       6.848083      0.09027034
                    20    24       9.171212      0.00000004
                    20    25       9.475702      0.00454770
                    21     1      -5.927955      1.00000000
                    21     2      -4.930226      1.00000000
                    21     3      -3.724495      1.00000000
                    21     4      -3.605092      1.00000000
                    21     5      -2.617214      1.00000000
                    21     6      -2.078248      1.00000000
                    21     7      -1.074067      1.00000000
                    21     8      -0.902893      1.00000000
                    21     9      -0.883167      1.00000000
                    21    10      -0.854833      1.00000000
                    21    11      -0.570460      1.00000000
                    21    12      -0.420255      1.00000000
                    21    13      -0.349796      1.00000000
                    21    14      -0.098210      1.00000000
                    21    15       2.109658      1.00000000
                    21    16       2.945436      1.00000000
                    21    17       4.147489      1.00000000
                    21    18       5.124121      0.99992035
                    21    19       5.135419      1.00000000
                    21    20       5.186635      0.97244040
                    21    21       6.894437      1.00000000
                    21    22       7.215235      0.99999990
                    21    23       7.410284      0.02634120
                    21    24       8.741242      0.00007975
                    21    25       9.544111      0.00121840
                    22     1      -5.883514      1.00000000
                    22     2      -4.892441      1.00000000
                    22     3      -3.691907      1.00000000
                    22     4      -3.597917      1.00000000
                    22     5      -2.599042      1.00000000
                    22     6      -2.069414      1.00000000
                    22     7      -1.107950      1.00000000
                    22     8      -0.906568      1.00000000
                    22     9      -0.904874      1.00000000
[...]
                  1988    18       2.161197      1.00000000
                  1988    19       2.518381      1.00000000
                  1988    20       3.799918      1.00000000
                  1988    21       4.631394      1.00000000
                  1988    22       5.340345      0.98431263
                  1988    23       6.205259      0.01196122
                  1988    24       7.859422      0.00367222
                  1988    25       8.083171      0.00005393
                  1989     1      -5.396636      1.00000000
                  1989     2      -4.370955      1.00000000
                  1989     3      -3.981651      1.00000000
                  1989     4      -3.516769      1.00000000
                  1989     5      -3.064441      1.00000000
                  1989     6      -2.821751      1.00000000
                  1989     7      -2.316159      1.00000000
                  1989     8      -1.999850      1.00000000
                  1989     9      -1.660826      1.00000000
                  1989    10      -1.494830      1.00000000
                  1989    11      -1.016807      1.00000000
                  1989    12      -0.920624      1.00000000
                  1989    13      -0.659292      1.00000000
                  1989    14      -0.230799      1.00000000
                  1989    15       0.940193      1.00000000
                  1989    16       1.087226      1.00000000
                  1989    17       2.025368      1.00000000
                  1989    18       2.282223      1.00000000
                  1989    19       2.621746      1.00000000
                  1989    20       3.313752      1.00000000
                  1989    21       4.239363      1.00000000
                  1989    22       4.912405      1.00000000
                  1989    23       5.825448      0.00000000
                  1989    24       7.158238      0.00000000
                  1989    25       8.285794      0.00000000
                  1990     1      -5.575436      1.00000000
                  1990     2      -4.925170      1.00000000
                  1990     3      -4.087897      1.00000000
                  1990     4      -3.744099      1.00000000
                  1990     5      -2.973027      1.00000000
                  1990     6      -2.532811      1.00000000
                  1990     7      -2.211424      1.00000000
                  1990     8      -2.149345      1.00000000
                  1990     9      -1.803160      1.00000000
                  1990    10      -1.571066      1.00000000
                  1990    11      -1.066514      1.00000000
                  1990    12      -0.978794      1.00000000
                  1990    13      -0.541559      1.00000000
                  1990    14      -0.293950      1.00000000
                  1990    15       1.020484      1.00000000
                  1990    16       1.083051      1.00000000
                  1990    17       2.093390      1.00000000
                  1990    18       2.513977      1.00000000
                  1990    19       2.607573      1.00000000
                  1990    20       2.995356      1.00000000
                  1990    21       3.964184      1.00000000
                  1990    22       4.469062      1.00000000
                  1990    23       5.705474      0.00000000
                  1990    24       6.522676      0.00000000
                  1990    25       8.669353      0.00000000
                  1991     1      -5.499944      1.00000000
                  1991     2      -5.256407      1.00000000
                  1991     3      -4.133367      1.00000000
                  1991     4      -3.894206      1.00000000
                  1991     5      -2.780052      1.00000000
                  1991     6      -2.611997      1.00000000
                  1991     7      -2.102772      1.00000000
                  1991     8      -2.079910      1.00000000
                  1991     9      -1.902570      1.00000000
                  1991    10      -1.657953      1.00000000
                  1991    11      -1.079338      1.00000000
                  1991    12      -1.006519      1.00000000
                  1991    13      -0.448310      1.00000000
                  1991    14      -0.361500      1.00000000
                  1991    15       1.063532      1.00000000
                  1991    16       1.074260      1.00000000
                  1991    17       2.157791      1.00000000
                  1991    18       2.452314      1.00000000
                  1991    19       2.742789      1.00000000
                  1991    20       2.878513      1.00000000
                  1991    21       3.892230      1.00000000
                  1991    22       4.238636      1.00000000
                  1991    23       5.785922      0.00000000
                  1991    24       6.177053      0.00000000
                  1991    25       9.163206      0.00000000
                  1992     1      -5.575436      1.00000000
                  1992     2      -4.925170      1.00000000
                  1992     3      -4.087897      1.00000000
                  1992     4      -3.744099      1.00000000
                  1992     5      -2.973027      1.00000000
                  1992     6      -2.532811      1.00000000
                  1992     7      -2.211424      1.00000000
                  1992     8      -2.149345      1.00000000
                  1992     9      -1.803160      1.00000000
                  1992    10      -1.571066      1.00000000
                  1992    11      -1.066514      1.00000000
                  1992    12      -0.978794      1.00000000
                  1992    13      -0.541559      1.00000000
                  1992    14      -0.293950      1.00000000
                  1992    15       1.020484      1.00000000
                  1992    16       1.083051      1.00000000
                  1992    17       2.093390      1.00000000
                  1992    18       2.513977      1.00000000
                  1992    19       2.607573      1.00000000
                  1992    20       2.995356      1.00000000
                  1992    21       3.964184      1.00000000
                  1992    22       4.469062      1.00000000
                  1992    23       5.705474      0.00000000
                  1992    24       6.522676      0.00000000
                  1992    25       8.669353      0.00000000
                  1993     1      -5.396636      1.00000000
                  1993     2      -4.370955      1.00000000
                  1993     3      -3.981651      1.00000000
                  1993     4      -3.516769      1.00000000
                  1993     5      -3.064441      1.00000000
                  1993     6      -2.821751      1.00000000
                  1993     7      -2.316159      1.00000000
                  1993     8      -1.999850      1.00000000
                  1993     9      -1.660826      1.00000000
                  1993    10      -1.494830      1.00000000
                  1993    11      -1.016807      1.00000000
                  1993    12      -0.920624      1.00000000
                  1993    13      -0.659292      1.00000000
                  1993    14      -0.230799      1.00000000
                  1993    15       0.940193      1.00000000
                  1993    16       1.087226      1.00000000
                  1993    17       2.025368      1.00000000
                  1993    18       2.282223      1.00000000
                  1993    19       2.621746      1.00000000
                  1993    20       3.313752      1.00000000
                  1993    21       4.239363      1.00000000
                  1993    22       4.912405      1.00000000
                  1993    23       5.825448      0.00000000
                  1993    24       7.158238      0.00000000
                  1993    25       8.285794      0.00000000
                  1994     1      -4.885596      1.00000000
                  1994     2      -4.141587      1.00000000
                  1994     3      -3.831343      1.00000000
                  1994     4      -3.361895      1.00000000
                  1994     5      -3.221791      1.00000000
                  1994     6      -2.721005      1.00000000
                  1994     7      -2.375573      1.00000000
                  1994     8      -1.847269      1.00000000
                  1994     9      -1.488945      1.00000000
                  1994    10      -1.403634      1.00000000
                  1994    11      -0.957513      1.00000000
                  1994    12      -0.857470      1.00000000
                  1994    13      -0.713028      1.00000000
                  1994    14      -0.191784      1.00000000
                  1994    15       0.851705      1.00000000
                  1994    16       1.125201      1.00000000
                  1994    17       2.012135      1.00000000
                  1994    18       2.161197      1.00000000
                  1994    19       2.518381      1.00000000
                  1994    20       3.799918      1.00000000
                  1994    21       4.631394      1.00000000
                  1994    22       5.340345      0.98430928
                  1994    23       6.205259      0.01196280
                  1994    24       7.859422      0.00367417
                  1994    25       8.083171      0.00005375
                  1995     1      -4.429325      1.00000000
                  1995     2      -4.182597      1.00000000
                  1995     3      -3.779784      1.00000000
                  1995     4      -3.604775      1.00000000
                  1995     5      -2.789262      1.00000000
                  1995     6      -2.607670      1.00000000
                  1995     7      -2.170420      1.00000000
                  1995     8      -1.789374      1.00000000
                  1995     9      -1.344243      1.00000000
                  1995    10      -1.149573      1.00000000
                  1995    11      -0.916184      1.00000000
                  1995    12      -0.796469      1.00000000
                  1995    13      -0.685825      1.00000000
                  1995    14      -0.173461      1.00000000
                  1995    15       0.783652      1.00000000
                  1995    16       1.251860      1.00000000
                  1995    17       2.171559      1.00000000
                  1995    18       2.229736      1.00000000
                  1995    19       2.445823      1.00000000
                  1995    20       4.216940      1.00000000
                  1995    21       5.054001      0.99456807
                  1995    22       5.588037      0.99235669
                  1995    23       6.756448      0.00905217
                  1995    24       8.055996      0.00219077
                  1995    25       8.512904      0.00183230
                  1996     1      -4.768754      1.00000000
                  1996     2      -4.165084      1.00000000
                  1996     3      -3.810504      1.00000000
                  1996     4      -3.114749      1.00000000
                  1996     5      -2.818439      1.00000000
                  1996     6      -2.300997      1.00000000
                  1996     7      -2.029531      1.00000000
                  1996     8      -1.567136      1.00000000
                  1996     9      -1.121983      1.00000000
                  1996    10      -1.008446      1.00000000
                  1996    11      -0.794166      1.00000000
                  1996    12      -0.745844      1.00000000
                  1996    13      -0.637425      1.00000000
                  1996    14      -0.168286      1.00000000
                  1996    15       0.773179      1.00000000
                  1996    16       1.531481      1.00000000
                  1996    17       2.298341      1.00000000
                  1996    18       2.636691      1.00000000
                  1996    19       2.684211      1.00000000
                  1996    20       4.451985      1.00000000
                  1996    21       5.360336      0.99593237
                  1996    22       5.622949      0.99858647
                  1996    23       7.433817      0.00135862
                  1996    24       8.108741      0.00376046
                  1996    25       9.171602      0.00036208
                  1997     1      -5.082916      1.00000000
                  1997     2      -4.500604      1.00000000
                  1997     3      -3.859171      1.00000000
                  1997     4      -2.934564      1.00000000
                  1997     5      -2.297357      1.00000000
                  1997     6      -2.256971      1.00000000
                  1997     7      -1.946909      1.00000000
                  1997     8      -1.250229      1.00000000
                  1997     9      -1.011025      1.00000000
                  1997    10      -0.873146      1.00000000
                  1997    11      -0.711729      1.00000000
                  1997    12      -0.649502      1.00000000
                  1997    13      -0.582083      1.00000000
                  1997    14      -0.163977      1.00000000
                  1997    15       0.885362      1.00000000
                  1997    16       2.055835      1.00000000
                  1997    17       2.289785      1.00000000
                  1997    18       3.240716      1.00000000
                  1997    19       3.463395      1.00000000
                  1997    20       4.564902      1.00000000
                  1997    21       5.337811      0.99591137
                  1997    22       5.657113      0.99558323
                  1997    23       7.901815      0.00647037
                  1997    24       8.338577      0.00174464
                  1997    25       9.854288      0.00029040
                  1998     1      -5.345283      1.00000000
                  1998     2      -4.770959      1.00000000
                  1998     3      -3.969704      1.00000000
                  1998     4      -3.023290      1.00000000
                  1998     5      -2.323138      1.00000000
                  1998     6      -1.951752      1.00000000
                  1998     7      -1.598828      1.00000000
                  1998     8      -1.046696      1.00000000
                  1998     9      -0.971944      1.00000000
                  1998    10      -0.789797      1.00000000
                  1998    11      -0.667591      1.00000000
                  1998    12      -0.541939      1.00000000
                  1998    13      -0.519518      1.00000000
                  1998    14      -0.151084      1.00000000
                  1998    15       1.238190      1.00000000
                  1998    16       2.254751      1.00000000
                  1998    17       2.886825      1.00000000
                  1998    18       3.878791      1.00000000
                  1998    19       4.448712      1.00000000
                  1998    20       4.784647      1.00000000
                  1998    21       5.165603      0.99665628
                  1998    22       5.677024      0.98429996
                  1998    23       7.785931      0.01748471
                  1998    24       8.926456      0.00145293
                  1998    25      10.504596      0.00010612
                  1999     1      -5.541474      1.00000000
                  1999     2      -4.967100      1.00000000
                  1999     3      -4.078223      1.00000000
                  1999     4      -3.092537      1.00000000
                  1999     5      -2.369549      1.00000000
                  1999     6      -1.966542      1.00000000
                  1999     7      -1.237681      1.00000000
                  1999     8      -0.980475      1.00000000
                  1999     9      -0.924500      1.00000000
                  1999    10      -0.788906      1.00000000
                  1999    11      -0.586824      1.00000000
                  1999    12      -0.501946      1.00000000
                  1999    13      -0.435917      1.00000000
                  1999    14      -0.138685      1.00000000
                  1999    15       1.843867      1.00000000
                  1999    16       2.297354      1.00000000
                  1999    17       3.815992      1.00000000
                  1999    18       4.119917      1.00000000
                  1999    19       4.976767      1.00000000
                  1999    20       5.270139      0.98060168
                  1999    21       5.625673      0.99222514
                  1999    22       5.789468      0.99089246
                  1999    23       7.622869      0.03115863
                  1999    24       9.219941      0.00489300
                  1999    25      10.352677      0.00022909
                  2000     1      -5.662409      1.00000000
                  2000     2      -5.085784      1.00000000
                  2000     3      -4.153599      1.00000000
                  2000     4      -3.136978      1.00000000
                  2000     5      -2.403126      1.00000000
                  2000     6      -1.981623      1.00000000
                  2000     7      -1.100577      1.00000000
                  2000     8      -0.933915      1.00000000
                  2000     9      -0.904852      1.00000000
                  2000    10      -0.822646      1.00000000
                  2000    11      -0.560559      1.00000000
                  2000    12      -0.454599      1.00000000
                  2000    13      -0.370718      1.00000000
                  2000    14      -0.133490      1.00000000
                  2000    15       2.146649      1.00000000
                  2000    16       2.710386      1.00000000
                  2000    17       4.140928      1.00000000
                  2000    18       4.596314      1.00000000
                  2000    19       4.927534      1.00000000
                  2000    20       5.411745      0.96386801
                  2000    21       6.449535      0.99839103
                  2000    22       6.594814      0.99168262
                  2000    23       7.495817      0.03807946
                  2000    24       9.134290      0.00325563
                  2000    25       9.373184      0.00472324
 ------------------------------------------------------------------------------

 Time for wannierise          182.717 (sec)

 done

 *---------------------------------------------------------------------------*
 |                               PLOTTING                                    |
 *---------------------------------------------------------------------------*
 
 
 Calculating interpolated band-structure
 
 Time to calculate interpolated band structure       0.840 (sec)
 
 Time for plotting             48.387 (sec)
 Total Execution Time         323.015 (sec)

 *===========================================================================*
 |                             TIMING INFORMATION                            |
 *===========================================================================*
 |    Tag                                                Ncalls      Time (s)|
 |---------------------------------------------------------------------------|
 |kmesh: get                                        :         1         0.421|
 |overlap: read                                     :         1         5.509|
 |dis: main                                         :         1        85.772|
 |wann: main                                        :         1       182.717|
 |plot: main                                        :         1        48.387|
 *---------------------------------------------------------------------------*
 
 All done: wannier90 exiting
