File written on  2Sep2021 at 13:42:07 

calc_only_A  :  F

begin real_lattice
   5.3011999   0.0000000   0.0000000
   0.0000000   5.9858002   0.0000000
   0.0000000   0.0000000   2.8822002
end real_lattice

begin recip_lattice
   1.1852383   0.0000000   0.0000000
   0.0000000   1.0496818   0.0000000
   0.0000000   0.0000000   2.1799962
end recip_lattice

begin kpoints
  2000
    0.00000000    0.00000000    0.00000000
    0.00000000    0.00000000    0.05000000
    0.00000000    0.00000000    0.10000000
    0.00000000    0.00000000    0.15000000
    0.00000000    0.00000000    0.20000000
    0.00000000    0.00000000    0.25000000
    0.00000000    0.00000000    0.30000000
    0.00000000    0.00000000    0.35000000
    0.00000000    0.00000000    0.40000000
    0.00000000    0.00000000    0.45000000
    0.00000000    0.00000000    0.50000000
    0.00000000    0.00000000    0.55000000
    0.00000000    0.00000000    0.60000000
    0.00000000    0.00000000    0.65000000
    0.00000000    0.00000000    0.70000000
    0.00000000    0.00000000    0.75000000
    0.00000000    0.00000000    0.80000000
    0.00000000    0.00000000    0.85000000
    0.00000000    0.00000000    0.90000000
    0.00000000    0.00000000    0.95000000
    0.00000000    0.10000000    0.00000000
    0.00000000    0.10000000    0.05000000
    0.00000000    0.10000000    0.10000000
    0.00000000    0.10000000    0.15000000
    0.00000000    0.10000000    0.20000000
    0.00000000    0.10000000    0.25000000
    0.00000000    0.10000000    0.30000000
    0.00000000    0.10000000    0.35000000
    0.00000000    0.10000000    0.40000000
    0.00000000    0.10000000    0.45000000
    0.00000000    0.10000000    0.50000000
    0.00000000    0.10000000    0.55000000
    0.00000000    0.10000000    0.60000000
    0.00000000    0.10000000    0.65000000
    0.00000000    0.10000000    0.70000000
    0.00000000    0.10000000    0.75000000
    0.00000000    0.10000000    0.80000000
    0.00000000    0.10000000    0.85000000
    0.00000000    0.10000000    0.90000000
    0.00000000    0.10000000    0.95000000
    0.00000000    0.20000000    0.00000000
    0.00000000    0.20000000    0.05000000
    0.00000000    0.20000000    0.10000000
    0.00000000    0.20000000    0.15000000
    0.00000000    0.20000000    0.20000000
    0.00000000    0.20000000    0.25000000
    0.00000000    0.20000000    0.30000000
    0.00000000    0.20000000    0.35000000
    0.00000000    0.20000000    0.40000000
    0.00000000    0.20000000    0.45000000
    0.00000000    0.20000000    0.50000000
    0.00000000    0.20000000    0.55000000
    0.00000000    0.20000000    0.60000000
    0.00000000    0.20000000    0.65000000
    0.00000000    0.20000000    0.70000000
    0.00000000    0.20000000    0.75000000
    0.00000000    0.20000000    0.80000000
    0.00000000    0.20000000    0.85000000
    0.00000000    0.20000000    0.90000000
    0.00000000    0.20000000    0.95000000
    0.00000000    0.30000000    0.00000000
    0.00000000    0.30000000    0.05000000
    0.00000000    0.30000000    0.10000000
    0.00000000    0.30000000    0.15000000
    0.00000000    0.30000000    0.20000000
    0.00000000    0.30000000    0.25000000
    0.00000000    0.30000000    0.30000000
    0.00000000    0.30000000    0.35000000
    0.00000000    0.30000000    0.40000000
    0.00000000    0.30000000    0.45000000
    0.00000000    0.30000000    0.50000000
    0.00000000    0.30000000    0.55000000
    0.00000000    0.30000000    0.60000000
    0.00000000    0.30000000    0.65000000
    0.00000000    0.30000000    0.70000000
    0.00000000    0.30000000    0.75000000
    0.00000000    0.30000000    0.80000000
    0.00000000    0.30000000    0.85000000
    0.00000000    0.30000000    0.90000000
    0.00000000    0.30000000    0.95000000
    0.00000000    0.40000000    0.00000000
    0.00000000    0.40000000    0.05000000
    0.00000000    0.40000000    0.10000000
    0.00000000    0.40000000    0.15000000
    0.00000000    0.40000000    0.20000000
    0.00000000    0.40000000    0.25000000
    0.00000000    0.40000000    0.30000000
    0.00000000    0.40000000    0.35000000
    0.00000000    0.40000000    0.40000000
    0.00000000    0.40000000    0.45000000
    0.00000000    0.40000000    0.50000000
    0.00000000    0.40000000    0.55000000
    0.00000000    0.40000000    0.60000000
    0.00000000    0.40000000    0.65000000
    0.00000000    0.40000000    0.70000000
    0.00000000    0.40000000    0.75000000
    0.00000000    0.40000000    0.80000000
    0.00000000    0.40000000    0.85000000
    0.00000000    0.40000000    0.90000000
    0.00000000    0.40000000    0.95000000
    0.00000000    0.50000000    0.00000000
    0.00000000    0.50000000    0.05000000
    0.00000000    0.50000000    0.10000000
    0.00000000    0.50000000    0.15000000
    0.00000000    0.50000000    0.20000000
    0.00000000    0.50000000    0.25000000
    0.00000000    0.50000000    0.30000000
    0.00000000    0.50000000    0.35000000
    0.00000000    0.50000000    0.40000000
    0.00000000    0.50000000    0.45000000
    0.00000000    0.50000000    0.50000000
    0.00000000    0.50000000    0.55000000
    0.00000000    0.50000000    0.60000000
    0.00000000    0.50000000    0.65000000
    0.00000000    0.50000000    0.70000000
    0.00000000    0.50000000    0.75000000
    0.00000000    0.50000000    0.80000000
    0.00000000    0.50000000    0.85000000
    0.00000000    0.50000000    0.90000000
    0.00000000    0.50000000    0.95000000
    0.00000000    0.60000000    0.00000000
    0.00000000    0.60000000    0.05000000
    0.00000000    0.60000000    0.10000000
    0.00000000    0.60000000    0.15000000
    0.00000000    0.60000000    0.20000000
    0.00000000    0.60000000    0.25000000
    0.00000000    0.60000000    0.30000000
    0.00000000    0.60000000    0.35000000
    0.00000000    0.60000000    0.40000000
    0.00000000    0.60000000    0.45000000
    0.00000000    0.60000000    0.50000000
    0.00000000    0.60000000    0.55000000
    0.00000000    0.60000000    0.60000000
    0.00000000    0.60000000    0.65000000
    0.00000000    0.60000000    0.70000000
    0.00000000    0.60000000    0.75000000
    0.00000000    0.60000000    0.80000000
    0.00000000    0.60000000    0.85000000
    0.00000000    0.60000000    0.90000000
    0.00000000    0.60000000    0.95000000
    0.00000000    0.70000000    0.00000000
    0.00000000    0.70000000    0.05000000
    0.00000000    0.70000000    0.10000000
    0.00000000    0.70000000    0.15000000
    0.00000000    0.70000000    0.20000000
    0.00000000    0.70000000    0.25000000
    0.00000000    0.70000000    0.30000000
    0.00000000    0.70000000    0.35000000
    0.00000000    0.70000000    0.40000000
    0.00000000    0.70000000    0.45000000
    0.00000000    0.70000000    0.50000000
    0.00000000    0.70000000    0.55000000
    0.00000000    0.70000000    0.60000000
    0.00000000    0.70000000    0.65000000
    0.00000000    0.70000000    0.70000000
    0.00000000    0.70000000    0.75000000
    0.00000000    0.70000000    0.80000000
    0.00000000    0.70000000    0.85000000
    0.00000000    0.70000000    0.90000000
    0.00000000    0.70000000    0.95000000
    0.00000000    0.80000000    0.00000000
    0.00000000    0.80000000    0.05000000
    0.00000000    0.80000000    0.10000000
    0.00000000    0.80000000    0.15000000
    0.00000000    0.80000000    0.20000000
    0.00000000    0.80000000    0.25000000
    0.00000000    0.80000000    0.30000000
    0.00000000    0.80000000    0.35000000
    0.00000000    0.80000000    0.40000000
    0.00000000    0.80000000    0.45000000
    0.00000000    0.80000000    0.50000000
    0.00000000    0.80000000    0.55000000
    0.00000000    0.80000000    0.60000000
    0.00000000    0.80000000    0.65000000
    0.00000000    0.80000000    0.70000000
    0.00000000    0.80000000    0.75000000
    0.00000000    0.80000000    0.80000000
    0.00000000    0.80000000    0.85000000
    0.00000000    0.80000000    0.90000000
    0.00000000    0.80000000    0.95000000
    0.00000000    0.90000000    0.00000000
    0.00000000    0.90000000    0.05000000
    0.00000000    0.90000000    0.10000000
    0.00000000    0.90000000    0.15000000
    0.00000000    0.90000000    0.20000000
    0.00000000    0.90000000    0.25000000
    0.00000000    0.90000000    0.30000000
    0.00000000    0.90000000    0.35000000
    0.00000000    0.90000000    0.40000000
    0.00000000    0.90000000    0.45000000
    0.00000000    0.90000000    0.50000000
    0.00000000    0.90000000    0.55000000
    0.00000000    0.90000000    0.60000000
    0.00000000    0.90000000    0.65000000
    0.00000000    0.90000000    0.70000000
    0.00000000    0.90000000    0.75000000
    0.00000000    0.90000000    0.80000000
    0.00000000    0.90000000    0.85000000
    0.00000000    0.90000000    0.90000000
    0.00000000    0.90000000    0.95000000
    0.10000000    0.00000000    0.00000000
    0.10000000    0.00000000    0.05000000
    0.10000000    0.00000000    0.10000000
    0.10000000    0.00000000    0.15000000
    0.10000000    0.00000000    0.20000000
    0.10000000    0.00000000    0.25000000
    0.10000000    0.00000000    0.30000000
    0.10000000    0.00000000    0.35000000
    0.10000000    0.00000000    0.40000000
    0.10000000    0.00000000    0.45000000
    0.10000000    0.00000000    0.50000000
    0.10000000    0.00000000    0.55000000
    0.10000000    0.00000000    0.60000000
    0.10000000    0.00000000    0.65000000
    0.10000000    0.00000000    0.70000000
    0.10000000    0.00000000    0.75000000
    0.10000000    0.00000000    0.80000000
    0.10000000    0.00000000    0.85000000
    0.10000000    0.00000000    0.90000000
    0.10000000    0.00000000    0.95000000
    0.10000000    0.10000000    0.00000000
    0.10000000    0.10000000    0.05000000
    0.10000000    0.10000000    0.10000000
    0.10000000    0.10000000    0.15000000
    0.10000000    0.10000000    0.20000000
    0.10000000    0.10000000    0.25000000
    0.10000000    0.10000000    0.30000000
    0.10000000    0.10000000    0.35000000
    0.10000000    0.10000000    0.40000000
    0.10000000    0.10000000    0.45000000
    0.10000000    0.10000000    0.50000000
    0.10000000    0.10000000    0.55000000
    0.10000000    0.10000000    0.60000000
    0.10000000    0.10000000    0.65000000
    0.10000000    0.10000000    0.70000000
    0.10000000    0.10000000    0.75000000
    0.10000000    0.10000000    0.80000000
    0.10000000    0.10000000    0.85000000
    0.10000000    0.10000000    0.90000000
    0.10000000    0.10000000    0.95000000
    0.10000000    0.20000000    0.00000000
    0.10000000    0.20000000    0.05000000
    0.10000000    0.20000000    0.10000000
    0.10000000    0.20000000    0.15000000
    0.10000000    0.20000000    0.20000000
    0.10000000    0.20000000    0.25000000
    0.10000000    0.20000000    0.30000000
    0.10000000    0.20000000    0.35000000
    0.10000000    0.20000000    0.40000000
    0.10000000    0.20000000    0.45000000
    0.10000000    0.20000000    0.50000000
    0.10000000    0.20000000    0.55000000
    0.10000000    0.20000000    0.60000000
    0.10000000    0.20000000    0.65000000
    0.10000000    0.20000000    0.70000000
    0.10000000    0.20000000    0.75000000
    0.10000000    0.20000000    0.80000000
    0.10000000    0.20000000    0.85000000
    0.10000000    0.20000000    0.90000000
    0.10000000    0.20000000    0.95000000
    0.10000000    0.30000000    0.00000000
    0.10000000    0.30000000    0.05000000
    0.10000000    0.30000000    0.10000000
    0.10000000    0.30000000    0.15000000
    0.10000000    0.30000000    0.20000000
    0.10000000    0.30000000    0.25000000
    0.10000000    0.30000000    0.30000000
    0.10000000    0.30000000    0.35000000
    0.10000000    0.30000000    0.40000000
    0.10000000    0.30000000    0.45000000
    0.10000000    0.30000000    0.50000000
    0.10000000    0.30000000    0.55000000
    0.10000000    0.30000000    0.60000000
    0.10000000    0.30000000    0.65000000
    0.10000000    0.30000000    0.70000000
    0.10000000    0.30000000    0.75000000
    0.10000000    0.30000000    0.80000000
    0.10000000    0.30000000    0.85000000
    0.10000000    0.30000000    0.90000000
    0.10000000    0.30000000    0.95000000
    0.10000000    0.40000000    0.00000000
    0.10000000    0.40000000    0.05000000
    0.10000000    0.40000000    0.10000000
    0.10000000    0.40000000    0.15000000
    0.10000000    0.40000000    0.20000000
    0.10000000    0.40000000    0.25000000
    0.10000000    0.40000000    0.30000000
    0.10000000    0.40000000    0.35000000
    0.10000000    0.40000000    0.40000000
    0.10000000    0.40000000    0.45000000
    0.10000000    0.40000000    0.50000000
    0.10000000    0.40000000    0.55000000
    0.10000000    0.40000000    0.60000000
    0.10000000    0.40000000    0.65000000
    0.10000000    0.40000000    0.70000000
    0.10000000    0.40000000    0.75000000
    0.10000000    0.40000000    0.80000000
    0.10000000    0.40000000    0.85000000
    0.10000000    0.40000000    0.90000000
    0.10000000    0.40000000    0.95000000
    0.10000000    0.50000000    0.00000000
    0.10000000    0.50000000    0.05000000
    0.10000000    0.50000000    0.10000000
    0.10000000    0.50000000    0.15000000
    0.10000000    0.50000000    0.20000000
    0.10000000    0.50000000    0.25000000
    0.10000000    0.50000000    0.30000000
    0.10000000    0.50000000    0.35000000
    0.10000000    0.50000000    0.40000000
    0.10000000    0.50000000    0.45000000
    0.10000000    0.50000000    0.50000000
    0.10000000    0.50000000    0.55000000
    0.10000000    0.50000000    0.60000000
    0.10000000    0.50000000    0.65000000
    0.10000000    0.50000000    0.70000000
    0.10000000    0.50000000    0.75000000
    0.10000000    0.50000000    0.80000000
    0.10000000    0.50000000    0.85000000
    0.10000000    0.50000000    0.90000000
    0.10000000    0.50000000    0.95000000
    0.10000000    0.60000000    0.00000000
    0.10000000    0.60000000    0.05000000
    0.10000000    0.60000000    0.10000000
    0.10000000    0.60000000    0.15000000
    0.10000000    0.60000000    0.20000000
    0.10000000    0.60000000    0.25000000
    0.10000000    0.60000000    0.30000000
    0.10000000    0.60000000    0.35000000
    0.10000000    0.60000000    0.40000000
    0.10000000    0.60000000    0.45000000
    0.10000000    0.60000000    0.50000000
    0.10000000    0.60000000    0.55000000
    0.10000000    0.60000000    0.60000000
    0.10000000    0.60000000    0.65000000
    0.10000000    0.60000000    0.70000000
    0.10000000    0.60000000    0.75000000
    0.10000000    0.60000000    0.80000000
    0.10000000    0.60000000    0.85000000
    0.10000000    0.60000000    0.90000000
    0.10000000    0.60000000    0.95000000
    0.10000000    0.70000000    0.00000000
    0.10000000    0.70000000    0.05000000
    0.10000000    0.70000000    0.10000000
    0.10000000    0.70000000    0.15000000
    0.10000000    0.70000000    0.20000000
    0.10000000    0.70000000    0.25000000
    0.10000000    0.70000000    0.30000000
    0.10000000    0.70000000    0.35000000
    0.10000000    0.70000000    0.40000000
    0.10000000    0.70000000    0.45000000
    0.10000000    0.70000000    0.50000000
    0.10000000    0.70000000    0.55000000
    0.10000000    0.70000000    0.60000000
    0.10000000    0.70000000    0.65000000
    0.10000000    0.70000000    0.70000000
    0.10000000    0.70000000    0.75000000
    0.10000000    0.70000000    0.80000000
    0.10000000    0.70000000    0.85000000
    0.10000000    0.70000000    0.90000000
    0.10000000    0.70000000    0.95000000
    0.10000000    0.80000000    0.00000000
    0.10000000    0.80000000    0.05000000
    0.10000000    0.80000000    0.10000000
    0.10000000    0.80000000    0.15000000
    0.10000000    0.80000000    0.20000000
    0.10000000    0.80000000    0.25000000
    0.10000000    0.80000000    0.30000000
    0.10000000    0.80000000    0.35000000
    0.10000000    0.80000000    0.40000000
    0.10000000    0.80000000    0.45000000
    0.10000000    0.80000000    0.50000000
    0.10000000    0.80000000    0.55000000
    0.10000000    0.80000000    0.60000000
    0.10000000    0.80000000    0.65000000
    0.10000000    0.80000000    0.70000000
    0.10000000    0.80000000    0.75000000
    0.10000000    0.80000000    0.80000000
    0.10000000    0.80000000    0.85000000
    0.10000000    0.80000000    0.90000000
    0.10000000    0.80000000    0.95000000
    0.10000000    0.90000000    0.00000000
    0.10000000    0.90000000    0.05000000
    0.10000000    0.90000000    0.10000000
    0.10000000    0.90000000    0.15000000
    0.10000000    0.90000000    0.20000000
    0.10000000    0.90000000    0.25000000
    0.10000000    0.90000000    0.30000000
    0.10000000    0.90000000    0.35000000
    0.10000000    0.90000000    0.40000000
    0.10000000    0.90000000    0.45000000
    0.10000000    0.90000000    0.50000000
    0.10000000    0.90000000    0.55000000
    0.10000000    0.90000000    0.60000000
    0.10000000    0.90000000    0.65000000
    0.10000000    0.90000000    0.70000000
    0.10000000    0.90000000    0.75000000
    0.10000000    0.90000000    0.80000000
    0.10000000    0.90000000    0.85000000
    0.10000000    0.90000000    0.90000000
    0.10000000    0.90000000    0.95000000
    0.20000000    0.00000000    0.00000000
    0.20000000    0.00000000    0.05000000
    0.20000000    0.00000000    0.10000000
    0.20000000    0.00000000    0.15000000
    0.20000000    0.00000000    0.20000000
    0.20000000    0.00000000    0.25000000
    0.20000000    0.00000000    0.30000000
    0.20000000    0.00000000    0.35000000
    0.20000000    0.00000000    0.40000000
    0.20000000    0.00000000    0.45000000
    0.20000000    0.00000000    0.50000000
    0.20000000    0.00000000    0.55000000
    0.20000000    0.00000000    0.60000000
    0.20000000    0.00000000    0.65000000
    0.20000000    0.00000000    0.70000000
    0.20000000    0.00000000    0.75000000
    0.20000000    0.00000000    0.80000000
    0.20000000    0.00000000    0.85000000
    0.20000000    0.00000000    0.90000000
    0.20000000    0.00000000    0.95000000
    0.20000000    0.10000000    0.00000000
    0.20000000    0.10000000    0.05000000
    0.20000000    0.10000000    0.10000000
    0.20000000    0.10000000    0.15000000
    0.20000000    0.10000000    0.20000000
    0.20000000    0.10000000    0.25000000
    0.20000000    0.10000000    0.30000000
    0.20000000    0.10000000    0.35000000
    0.20000000    0.10000000    0.40000000
    0.20000000    0.10000000    0.45000000
    0.20000000    0.10000000    0.50000000
    0.20000000    0.10000000    0.55000000
    0.20000000    0.10000000    0.60000000
    0.20000000    0.10000000    0.65000000
    0.20000000    0.10000000    0.70000000
    0.20000000    0.10000000    0.75000000
    0.20000000    0.10000000    0.80000000
    0.20000000    0.10000000    0.85000000
    0.20000000    0.10000000    0.90000000
    0.20000000    0.10000000    0.95000000
    0.20000000    0.20000000    0.00000000
    0.20000000    0.20000000    0.05000000
    0.20000000    0.20000000    0.10000000
    0.20000000    0.20000000    0.15000000
    0.20000000    0.20000000    0.20000000
    0.20000000    0.20000000    0.25000000
    0.20000000    0.20000000    0.30000000
    0.20000000    0.20000000    0.35000000
    0.20000000    0.20000000    0.40000000
    0.20000000    0.20000000    0.45000000
    0.20000000    0.20000000    0.50000000
    0.20000000    0.20000000    0.55000000
    0.20000000    0.20000000    0.60000000
    0.20000000    0.20000000    0.65000000
    0.20000000    0.20000000    0.70000000
    0.20000000    0.20000000    0.75000000
    0.20000000    0.20000000    0.80000000
    0.20000000    0.20000000    0.85000000
    0.20000000    0.20000000    0.90000000
    0.20000000    0.20000000    0.95000000
    0.20000000    0.30000000    0.00000000
    0.20000000    0.30000000    0.05000000
    0.20000000    0.30000000    0.10000000
    0.20000000    0.30000000    0.15000000
    0.20000000    0.30000000    0.20000000
    0.20000000    0.30000000    0.25000000
    0.20000000    0.30000000    0.30000000
    0.20000000    0.30000000    0.35000000
    0.20000000    0.30000000    0.40000000
    0.20000000    0.30000000    0.45000000
    0.20000000    0.30000000    0.50000000
    0.20000000    0.30000000    0.55000000
    0.20000000    0.30000000    0.60000000
    0.20000000    0.30000000    0.65000000
    0.20000000    0.30000000    0.70000000
    0.20000000    0.30000000    0.75000000
    0.20000000    0.30000000    0.80000000
    0.20000000    0.30000000    0.85000000
    0.20000000    0.30000000    0.90000000
    0.20000000    0.30000000    0.95000000
    0.20000000    0.40000000    0.00000000
    0.20000000    0.40000000    0.05000000
    0.20000000    0.40000000    0.10000000
    0.20000000    0.40000000    0.15000000
    0.20000000    0.40000000    0.20000000
    0.20000000    0.40000000    0.25000000
    0.20000000    0.40000000    0.30000000
    0.20000000    0.40000000    0.35000000
    0.20000000    0.40000000    0.40000000
    0.20000000    0.40000000    0.45000000
    0.20000000    0.40000000    0.50000000
    0.20000000    0.40000000    0.55000000
    0.20000000    0.40000000    0.60000000
    0.20000000    0.40000000    0.65000000
    0.20000000    0.40000000    0.70000000
    0.20000000    0.40000000    0.75000000
    0.20000000    0.40000000    0.80000000
    0.20000000    0.40000000    0.85000000
    0.20000000    0.40000000    0.90000000
    0.20000000    0.40000000    0.95000000
    0.20000000    0.50000000    0.00000000
    0.20000000    0.50000000    0.05000000
    0.20000000    0.50000000    0.10000000
    0.20000000    0.50000000    0.15000000
    0.20000000    0.50000000    0.20000000
    0.20000000    0.50000000    0.25000000
    0.20000000    0.50000000    0.30000000
    0.20000000    0.50000000    0.35000000
    0.20000000    0.50000000    0.40000000
    0.20000000    0.50000000    0.45000000
    0.20000000    0.50000000    0.50000000
    0.20000000    0.50000000    0.55000000
    0.20000000    0.50000000    0.60000000
    0.20000000    0.50000000    0.65000000
    0.20000000    0.50000000    0.70000000
    0.20000000    0.50000000    0.75000000
    0.20000000    0.50000000    0.80000000
    0.20000000    0.50000000    0.85000000
    0.20000000    0.50000000    0.90000000
    0.20000000    0.50000000    0.95000000
    0.20000000    0.60000000    0.00000000
    0.20000000    0.60000000    0.05000000
    0.20000000    0.60000000    0.10000000
    0.20000000    0.60000000    0.15000000
    0.20000000    0.60000000    0.20000000
    0.20000000    0.60000000    0.25000000
    0.20000000    0.60000000    0.30000000
    0.20000000    0.60000000    0.35000000
    0.20000000    0.60000000    0.40000000
    0.20000000    0.60000000    0.45000000
    0.20000000    0.60000000    0.50000000
    0.20000000    0.60000000    0.55000000
    0.20000000    0.60000000    0.60000000
    0.20000000    0.60000000    0.65000000
    0.20000000    0.60000000    0.70000000
    0.20000000    0.60000000    0.75000000
    0.20000000    0.60000000    0.80000000
    0.20000000    0.60000000    0.85000000
    0.20000000    0.60000000    0.90000000
    0.20000000    0.60000000    0.95000000
    0.20000000    0.70000000    0.00000000
    0.20000000    0.70000000    0.05000000
    0.20000000    0.70000000    0.10000000
    0.20000000    0.70000000    0.15000000
    0.20000000    0.70000000    0.20000000
    0.20000000    0.70000000    0.25000000
    0.20000000    0.70000000    0.30000000
    0.20000000    0.70000000    0.35000000
    0.20000000    0.70000000    0.40000000
    0.20000000    0.70000000    0.45000000
    0.20000000    0.70000000    0.50000000
    0.20000000    0.70000000    0.55000000
    0.20000000    0.70000000    0.60000000
    0.20000000    0.70000000    0.65000000
    0.20000000    0.70000000    0.70000000
    0.20000000    0.70000000    0.75000000
    0.20000000    0.70000000    0.80000000
    0.20000000    0.70000000    0.85000000
    0.20000000    0.70000000    0.90000000
    0.20000000    0.70000000    0.95000000
    0.20000000    0.80000000    0.00000000
    0.20000000    0.80000000    0.05000000
    0.20000000    0.80000000    0.10000000
    0.20000000    0.80000000    0.15000000
    0.20000000    0.80000000    0.20000000
    0.20000000    0.80000000    0.25000000
    0.20000000    0.80000000    0.30000000
    0.20000000    0.80000000    0.35000000
    0.20000000    0.80000000    0.40000000
    0.20000000    0.80000000    0.45000000
    0.20000000    0.80000000    0.50000000
    0.20000000    0.80000000    0.55000000
    0.20000000    0.80000000    0.60000000
    0.20000000    0.80000000    0.65000000
    0.20000000    0.80000000    0.70000000
    0.20000000    0.80000000    0.75000000
    0.20000000    0.80000000    0.80000000
    0.20000000    0.80000000    0.85000000
    0.20000000    0.80000000    0.90000000
    0.20000000    0.80000000    0.95000000
    0.20000000    0.90000000    0.00000000
    0.20000000    0.90000000    0.05000000
    0.20000000    0.90000000    0.10000000
    0.20000000    0.90000000    0.15000000
    0.20000000    0.90000000    0.20000000
    0.20000000    0.90000000    0.25000000
    0.20000000    0.90000000    0.30000000
    0.20000000    0.90000000    0.35000000
    0.20000000    0.90000000    0.40000000
    0.20000000    0.90000000    0.45000000
    0.20000000    0.90000000    0.50000000
    0.20000000    0.90000000    0.55000000
    0.20000000    0.90000000    0.60000000
    0.20000000    0.90000000    0.65000000
    0.20000000    0.90000000    0.70000000
    0.20000000    0.90000000    0.75000000
    0.20000000    0.90000000    0.80000000
    0.20000000    0.90000000    0.85000000
    0.20000000    0.90000000    0.90000000
    0.20000000    0.90000000    0.95000000
    0.30000000    0.00000000    0.00000000
    0.30000000    0.00000000    0.05000000
    0.30000000    0.00000000    0.10000000
    0.30000000    0.00000000    0.15000000
    0.30000000    0.00000000    0.20000000
    0.30000000    0.00000000    0.25000000
    0.30000000    0.00000000    0.30000000
    0.30000000    0.00000000    0.35000000
    0.30000000    0.00000000    0.40000000
    0.30000000    0.00000000    0.45000000
    0.30000000    0.00000000    0.50000000
    0.30000000    0.00000000    0.55000000
    0.30000000    0.00000000    0.60000000
    0.30000000    0.00000000    0.65000000
    0.30000000    0.00000000    0.70000000
    0.30000000    0.00000000    0.75000000
    0.30000000    0.00000000    0.80000000
    0.30000000    0.00000000    0.85000000
    0.30000000    0.00000000    0.90000000
    0.30000000    0.00000000    0.95000000
    0.30000000    0.10000000    0.00000000
    0.30000000    0.10000000    0.05000000
    0.30000000    0.10000000    0.10000000
    0.30000000    0.10000000    0.15000000
    0.30000000    0.10000000    0.20000000
    0.30000000    0.10000000    0.25000000
    0.30000000    0.10000000    0.30000000
    0.30000000    0.10000000    0.35000000
    0.30000000    0.10000000    0.40000000
    0.30000000    0.10000000    0.45000000
    0.30000000    0.10000000    0.50000000
    0.30000000    0.10000000    0.55000000
    0.30000000    0.10000000    0.60000000
    0.30000000    0.10000000    0.65000000
    0.30000000    0.10000000    0.70000000
    0.30000000    0.10000000    0.75000000
    0.30000000    0.10000000    0.80000000
    0.30000000    0.10000000    0.85000000
    0.30000000    0.10000000    0.90000000
    0.30000000    0.10000000    0.95000000
    0.30000000    0.20000000    0.00000000
    0.30000000    0.20000000    0.05000000
    0.30000000    0.20000000    0.10000000
    0.30000000    0.20000000    0.15000000
    0.30000000    0.20000000    0.20000000
    0.30000000    0.20000000    0.25000000
    0.30000000    0.20000000    0.30000000
    0.30000000    0.20000000    0.35000000
    0.30000000    0.20000000    0.40000000
    0.30000000    0.20000000    0.45000000
    0.30000000    0.20000000    0.50000000
    0.30000000    0.20000000    0.55000000
    0.30000000    0.20000000    0.60000000
    0.30000000    0.20000000    0.65000000
    0.30000000    0.20000000    0.70000000
    0.30000000    0.20000000    0.75000000
    0.30000000    0.20000000    0.80000000
    0.30000000    0.20000000    0.85000000
    0.30000000    0.20000000    0.90000000
    0.30000000    0.20000000    0.95000000
    0.30000000    0.30000000    0.00000000
    0.30000000    0.30000000    0.05000000
    0.30000000    0.30000000    0.10000000
    0.30000000    0.30000000    0.15000000
    0.30000000    0.30000000    0.20000000
    0.30000000    0.30000000    0.25000000
    0.30000000    0.30000000    0.30000000
    0.30000000    0.30000000    0.35000000
    0.30000000    0.30000000    0.40000000
    0.30000000    0.30000000    0.45000000
    0.30000000    0.30000000    0.50000000
    0.30000000    0.30000000    0.55000000
    0.30000000    0.30000000    0.60000000
    0.30000000    0.30000000    0.65000000
    0.30000000    0.30000000    0.70000000
    0.30000000    0.30000000    0.75000000
    0.30000000    0.30000000    0.80000000
    0.30000000    0.30000000    0.85000000
    0.30000000    0.30000000    0.90000000
    0.30000000    0.30000000    0.95000000
    0.30000000    0.40000000    0.00000000
    0.30000000    0.40000000    0.05000000
    0.30000000    0.40000000    0.10000000
    0.30000000    0.40000000    0.15000000
    0.30000000    0.40000000    0.20000000
    0.30000000    0.40000000    0.25000000
    0.30000000    0.40000000    0.30000000
    0.30000000    0.40000000    0.35000000
    0.30000000    0.40000000    0.40000000
    0.30000000    0.40000000    0.45000000
    0.30000000    0.40000000    0.50000000
    0.30000000    0.40000000    0.55000000
    0.30000000    0.40000000    0.60000000
    0.30000000    0.40000000    0.65000000
    0.30000000    0.40000000    0.70000000
    0.30000000    0.40000000    0.75000000
    0.30000000    0.40000000    0.80000000
    0.30000000    0.40000000    0.85000000
    0.30000000    0.40000000    0.90000000
    0.30000000    0.40000000    0.95000000
    0.30000000    0.50000000    0.00000000
    0.30000000    0.50000000    0.05000000
    0.30000000    0.50000000    0.10000000
    0.30000000    0.50000000    0.15000000
    0.30000000    0.50000000    0.20000000
    0.30000000    0.50000000    0.25000000
    0.30000000    0.50000000    0.30000000
    0.30000000    0.50000000    0.35000000
    0.30000000    0.50000000    0.40000000
    0.30000000    0.50000000    0.45000000
    0.30000000    0.50000000    0.50000000
    0.30000000    0.50000000    0.55000000
    0.30000000    0.50000000    0.60000000
    0.30000000    0.50000000    0.65000000
    0.30000000    0.50000000    0.70000000
    0.30000000    0.50000000    0.75000000
    0.30000000    0.50000000    0.80000000
    0.30000000    0.50000000    0.85000000
    0.30000000    0.50000000    0.90000000
    0.30000000    0.50000000    0.95000000
    0.30000000    0.60000000    0.00000000
    0.30000000    0.60000000    0.05000000
    0.30000000    0.60000000    0.10000000
    0.30000000    0.60000000    0.15000000
    0.30000000    0.60000000    0.20000000
    0.30000000    0.60000000    0.25000000
    0.30000000    0.60000000    0.30000000
    0.30000000    0.60000000    0.35000000
    0.30000000    0.60000000    0.40000000
    0.30000000    0.60000000    0.45000000
    0.30000000    0.60000000    0.50000000
    0.30000000    0.60000000    0.55000000
    0.30000000    0.60000000    0.60000000
    0.30000000    0.60000000    0.65000000
    0.30000000    0.60000000    0.70000000
    0.30000000    0.60000000    0.75000000
    0.30000000    0.60000000    0.80000000
    0.30000000    0.60000000    0.85000000
    0.30000000    0.60000000    0.90000000
    0.30000000    0.60000000    0.95000000
    0.30000000    0.70000000    0.00000000
    0.30000000    0.70000000    0.05000000
    0.30000000    0.70000000    0.10000000
    0.30000000    0.70000000    0.15000000
    0.30000000    0.70000000    0.20000000
    0.30000000    0.70000000    0.25000000
    0.30000000    0.70000000    0.30000000
    0.30000000    0.70000000    0.35000000
    0.30000000    0.70000000    0.40000000
    0.30000000    0.70000000    0.45000000
    0.30000000    0.70000000    0.50000000
    0.30000000    0.70000000    0.55000000
    0.30000000    0.70000000    0.60000000
    0.30000000    0.70000000    0.65000000
    0.30000000    0.70000000    0.70000000
    0.30000000    0.70000000    0.75000000
    0.30000000    0.70000000    0.80000000
    0.30000000    0.70000000    0.85000000
    0.30000000    0.70000000    0.90000000
    0.30000000    0.70000000    0.95000000
    0.30000000    0.80000000    0.00000000
    0.30000000    0.80000000    0.05000000
    0.30000000    0.80000000    0.10000000
    0.30000000    0.80000000    0.15000000
    0.30000000    0.80000000    0.20000000
    0.30000000    0.80000000    0.25000000
    0.30000000    0.80000000    0.30000000
    0.30000000    0.80000000    0.35000000
    0.30000000    0.80000000    0.40000000
    0.30000000    0.80000000    0.45000000
    0.30000000    0.80000000    0.50000000
    0.30000000    0.80000000    0.55000000
    0.30000000    0.80000000    0.60000000
    0.30000000    0.80000000    0.65000000
    0.30000000    0.80000000    0.70000000
    0.30000000    0.80000000    0.75000000
    0.30000000    0.80000000    0.80000000
    0.30000000    0.80000000    0.85000000
    0.30000000    0.80000000    0.90000000
    0.30000000    0.80000000    0.95000000
    0.30000000    0.90000000    0.00000000
    0.30000000    0.90000000    0.05000000
    0.30000000    0.90000000    0.10000000
    0.30000000    0.90000000    0.15000000
    0.30000000    0.90000000    0.20000000
    0.30000000    0.90000000    0.25000000
    0.30000000    0.90000000    0.30000000
    0.30000000    0.90000000    0.35000000
    0.30000000    0.90000000    0.40000000
    0.30000000    0.90000000    0.45000000
    0.30000000    0.90000000    0.50000000
    0.30000000    0.90000000    0.55000000
    0.30000000    0.90000000    0.60000000
    0.30000000    0.90000000    0.65000000
    0.30000000    0.90000000    0.70000000
    0.30000000    0.90000000    0.75000000
    0.30000000    0.90000000    0.80000000
    0.30000000    0.90000000    0.85000000
    0.30000000    0.90000000    0.90000000
    0.30000000    0.90000000    0.95000000
    0.40000000    0.00000000    0.00000000
    0.40000000    0.00000000    0.05000000
    0.40000000    0.00000000    0.10000000
    0.40000000    0.00000000    0.15000000
    0.40000000    0.00000000    0.20000000
    0.40000000    0.00000000    0.25000000
    0.40000000    0.00000000    0.30000000
    0.40000000    0.00000000    0.35000000
    0.40000000    0.00000000    0.40000000
    0.40000000    0.00000000    0.45000000
    0.40000000    0.00000000    0.50000000
    0.40000000    0.00000000    0.55000000
    0.40000000    0.00000000    0.60000000
    0.40000000    0.00000000    0.65000000
    0.40000000    0.00000000    0.70000000
    0.40000000    0.00000000    0.75000000
    0.40000000    0.00000000    0.80000000
    0.40000000    0.00000000    0.85000000
    0.40000000    0.00000000    0.90000000
    0.40000000    0.00000000    0.95000000
    0.40000000    0.10000000    0.00000000
    0.40000000    0.10000000    0.05000000
    0.40000000    0.10000000    0.10000000
    0.40000000    0.10000000    0.15000000
    0.40000000    0.10000000    0.20000000
    0.40000000    0.10000000    0.25000000
    0.40000000    0.10000000    0.30000000
    0.40000000    0.10000000    0.35000000
    0.40000000    0.10000000    0.40000000
    0.40000000    0.10000000    0.45000000
    0.40000000    0.10000000    0.50000000
    0.40000000    0.10000000    0.55000000
    0.40000000    0.10000000    0.60000000
    0.40000000    0.10000000    0.65000000
    0.40000000    0.10000000    0.70000000
    0.40000000    0.10000000    0.75000000
    0.40000000    0.10000000    0.80000000
    0.40000000    0.10000000    0.85000000
    0.40000000    0.10000000    0.90000000
    0.40000000    0.10000000    0.95000000
    0.40000000    0.20000000    0.00000000
    0.40000000    0.20000000    0.05000000
    0.40000000    0.20000000    0.10000000
    0.40000000    0.20000000    0.15000000
    0.40000000    0.20000000    0.20000000
    0.40000000    0.20000000    0.25000000
    0.40000000    0.20000000    0.30000000
    0.40000000    0.20000000    0.35000000
    0.40000000    0.20000000    0.40000000
    0.40000000    0.20000000    0.45000000
    0.40000000    0.20000000    0.50000000
    0.40000000    0.20000000    0.55000000
    0.40000000    0.20000000    0.60000000
    0.40000000    0.20000000    0.65000000
    0.40000000    0.20000000    0.70000000
    0.40000000    0.20000000    0.75000000
    0.40000000    0.20000000    0.80000000
    0.40000000    0.20000000    0.85000000
    0.40000000    0.20000000    0.90000000
    0.40000000    0.20000000    0.95000000
    0.40000000    0.30000000    0.00000000
    0.40000000    0.30000000    0.05000000
    0.40000000    0.30000000    0.10000000
    0.40000000    0.30000000    0.15000000
    0.40000000    0.30000000    0.20000000
    0.40000000    0.30000000    0.25000000
    0.40000000    0.30000000    0.30000000
    0.40000000    0.30000000    0.35000000
    0.40000000    0.30000000    0.40000000
    0.40000000    0.30000000    0.45000000
    0.40000000    0.30000000    0.50000000
    0.40000000    0.30000000    0.55000000
    0.40000000    0.30000000    0.60000000
    0.40000000    0.30000000    0.65000000
    0.40000000    0.30000000    0.70000000
    0.40000000    0.30000000    0.75000000
    0.40000000    0.30000000    0.80000000
    0.40000000    0.30000000    0.85000000
    0.40000000    0.30000000    0.90000000
    0.40000000    0.30000000    0.95000000
    0.40000000    0.40000000    0.00000000
    0.40000000    0.40000000    0.05000000
    0.40000000    0.40000000    0.10000000
    0.40000000    0.40000000    0.15000000
    0.40000000    0.40000000    0.20000000
    0.40000000    0.40000000    0.25000000
    0.40000000    0.40000000    0.30000000
    0.40000000    0.40000000    0.35000000
    0.40000000    0.40000000    0.40000000
    0.40000000    0.40000000    0.45000000
    0.40000000    0.40000000    0.50000000
    0.40000000    0.40000000    0.55000000
    0.40000000    0.40000000    0.60000000
    0.40000000    0.40000000    0.65000000
    0.40000000    0.40000000    0.70000000
    0.40000000    0.40000000    0.75000000
    0.40000000    0.40000000    0.80000000
    0.40000000    0.40000000    0.85000000
    0.40000000    0.40000000    0.90000000
    0.40000000    0.40000000    0.95000000
    0.40000000    0.50000000    0.00000000
    0.40000000    0.50000000    0.05000000
    0.40000000    0.50000000    0.10000000
    0.40000000    0.50000000    0.15000000
    0.40000000    0.50000000    0.20000000
    0.40000000    0.50000000    0.25000000
    0.40000000    0.50000000    0.30000000
    0.40000000    0.50000000    0.35000000
    0.40000000    0.50000000    0.40000000
    0.40000000    0.50000000    0.45000000
    0.40000000    0.50000000    0.50000000
    0.40000000    0.50000000    0.55000000
    0.40000000    0.50000000    0.60000000
    0.40000000    0.50000000    0.65000000
    0.40000000    0.50000000    0.70000000
    0.40000000    0.50000000    0.75000000
    0.40000000    0.50000000    0.80000000
    0.40000000    0.50000000    0.85000000
    0.40000000    0.50000000    0.90000000
    0.40000000    0.50000000    0.95000000
    0.40000000    0.60000000    0.00000000
    0.40000000    0.60000000    0.05000000
    0.40000000    0.60000000    0.10000000
    0.40000000    0.60000000    0.15000000
    0.40000000    0.60000000    0.20000000
    0.40000000    0.60000000    0.25000000
    0.40000000    0.60000000    0.30000000
    0.40000000    0.60000000    0.35000000
    0.40000000    0.60000000    0.40000000
    0.40000000    0.60000000    0.45000000
    0.40000000    0.60000000    0.50000000
    0.40000000    0.60000000    0.55000000
    0.40000000    0.60000000    0.60000000
    0.40000000    0.60000000    0.65000000
    0.40000000    0.60000000    0.70000000
    0.40000000    0.60000000    0.75000000
    0.40000000    0.60000000    0.80000000
    0.40000000    0.60000000    0.85000000
    0.40000000    0.60000000    0.90000000
    0.40000000    0.60000000    0.95000000
    0.40000000    0.70000000    0.00000000
    0.40000000    0.70000000    0.05000000
    0.40000000    0.70000000    0.10000000
    0.40000000    0.70000000    0.15000000
    0.40000000    0.70000000    0.20000000
    0.40000000    0.70000000    0.25000000
    0.40000000    0.70000000    0.30000000
    0.40000000    0.70000000    0.35000000
    0.40000000    0.70000000    0.40000000
    0.40000000    0.70000000    0.45000000
    0.40000000    0.70000000    0.50000000
    0.40000000    0.70000000    0.55000000
    0.40000000    0.70000000    0.60000000
    0.40000000    0.70000000    0.65000000
    0.40000000    0.70000000    0.70000000
    0.40000000    0.70000000    0.75000000
    0.40000000    0.70000000    0.80000000
    0.40000000    0.70000000    0.85000000
    0.40000000    0.70000000    0.90000000
    0.40000000    0.70000000    0.95000000
    0.40000000    0.80000000    0.00000000
    0.40000000    0.80000000    0.05000000
    0.40000000    0.80000000    0.10000000
    0.40000000    0.80000000    0.15000000
    0.40000000    0.80000000    0.20000000
    0.40000000    0.80000000    0.25000000
    0.40000000    0.80000000    0.30000000
    0.40000000    0.80000000    0.35000000
    0.40000000    0.80000000    0.40000000
    0.40000000    0.80000000    0.45000000
    0.40000000    0.80000000    0.50000000
    0.40000000    0.80000000    0.55000000
    0.40000000    0.80000000    0.60000000
    0.40000000    0.80000000    0.65000000
    0.40000000    0.80000000    0.70000000
    0.40000000    0.80000000    0.75000000
    0.40000000    0.80000000    0.80000000
    0.40000000    0.80000000    0.85000000
    0.40000000    0.80000000    0.90000000
    0.40000000    0.80000000    0.95000000
    0.40000000    0.90000000    0.00000000
    0.40000000    0.90000000    0.05000000
    0.40000000    0.90000000    0.10000000
    0.40000000    0.90000000    0.15000000
    0.40000000    0.90000000    0.20000000
    0.40000000    0.90000000    0.25000000
    0.40000000    0.90000000    0.30000000
    0.40000000    0.90000000    0.35000000
    0.40000000    0.90000000    0.40000000
    0.40000000    0.90000000    0.45000000
    0.40000000    0.90000000    0.50000000
    0.40000000    0.90000000    0.55000000
    0.40000000    0.90000000    0.60000000
    0.40000000    0.90000000    0.65000000
    0.40000000    0.90000000    0.70000000
    0.40000000    0.90000000    0.75000000
    0.40000000    0.90000000    0.80000000
    0.40000000    0.90000000    0.85000000
    0.40000000    0.90000000    0.90000000
    0.40000000    0.90000000    0.95000000
    0.50000000    0.00000000    0.00000000
    0.50000000    0.00000000    0.05000000
    0.50000000    0.00000000    0.10000000
    0.50000000    0.00000000    0.15000000
    0.50000000    0.00000000    0.20000000
    0.50000000    0.00000000    0.25000000
    0.50000000    0.00000000    0.30000000
    0.50000000    0.00000000    0.35000000
    0.50000000    0.00000000    0.40000000
    0.50000000    0.00000000    0.45000000
    0.50000000    0.00000000    0.50000000
    0.50000000    0.00000000    0.55000000
    0.50000000    0.00000000    0.60000000
    0.50000000    0.00000000    0.65000000
    0.50000000    0.00000000    0.70000000
    0.50000000    0.00000000    0.75000000
    0.50000000    0.00000000    0.80000000
    0.50000000    0.00000000    0.85000000
    0.50000000    0.00000000    0.90000000
    0.50000000    0.00000000    0.95000000
    0.50000000    0.10000000    0.00000000
    0.50000000    0.10000000    0.05000000
    0.50000000    0.10000000    0.10000000
    0.50000000    0.10000000    0.15000000
    0.50000000    0.10000000    0.20000000
    0.50000000    0.10000000    0.25000000
    0.50000000    0.10000000    0.30000000
    0.50000000    0.10000000    0.35000000
    0.50000000    0.10000000    0.40000000
    0.50000000    0.10000000    0.45000000
    0.50000000    0.10000000    0.50000000
    0.50000000    0.10000000    0.55000000
    0.50000000    0.10000000    0.60000000
    0.50000000    0.10000000    0.65000000
    0.50000000    0.10000000    0.70000000
    0.50000000    0.10000000    0.75000000
    0.50000000    0.10000000    0.80000000
    0.50000000    0.10000000    0.85000000
    0.50000000    0.10000000    0.90000000
    0.50000000    0.10000000    0.95000000
    0.50000000    0.20000000    0.00000000
    0.50000000    0.20000000    0.05000000
    0.50000000    0.20000000    0.10000000
    0.50000000    0.20000000    0.15000000
    0.50000000    0.20000000    0.20000000
    0.50000000    0.20000000    0.25000000
    0.50000000    0.20000000    0.30000000
    0.50000000    0.20000000    0.35000000
    0.50000000    0.20000000    0.40000000
    0.50000000    0.20000000    0.45000000
    0.50000000    0.20000000    0.50000000
    0.50000000    0.20000000    0.55000000
    0.50000000    0.20000000    0.60000000
    0.50000000    0.20000000    0.65000000
    0.50000000    0.20000000    0.70000000
    0.50000000    0.20000000    0.75000000
    0.50000000    0.20000000    0.80000000
    0.50000000    0.20000000    0.85000000
    0.50000000    0.20000000    0.90000000
    0.50000000    0.20000000    0.95000000
    0.50000000    0.30000000    0.00000000
    0.50000000    0.30000000    0.05000000
    0.50000000    0.30000000    0.10000000
    0.50000000    0.30000000    0.15000000
    0.50000000    0.30000000    0.20000000
    0.50000000    0.30000000    0.25000000
    0.50000000    0.30000000    0.30000000
    0.50000000    0.30000000    0.35000000
    0.50000000    0.30000000    0.40000000
    0.50000000    0.30000000    0.45000000
    0.50000000    0.30000000    0.50000000
    0.50000000    0.30000000    0.55000000
    0.50000000    0.30000000    0.60000000
    0.50000000    0.30000000    0.65000000
    0.50000000    0.30000000    0.70000000
    0.50000000    0.30000000    0.75000000
    0.50000000    0.30000000    0.80000000
    0.50000000    0.30000000    0.85000000
    0.50000000    0.30000000    0.90000000
    0.50000000    0.30000000    0.95000000
    0.50000000    0.40000000    0.00000000
    0.50000000    0.40000000    0.05000000
    0.50000000    0.40000000    0.10000000
    0.50000000    0.40000000    0.15000000
    0.50000000    0.40000000    0.20000000
    0.50000000    0.40000000    0.25000000
    0.50000000    0.40000000    0.30000000
    0.50000000    0.40000000    0.35000000
    0.50000000    0.40000000    0.40000000
    0.50000000    0.40000000    0.45000000
    0.50000000    0.40000000    0.50000000
    0.50000000    0.40000000    0.55000000
    0.50000000    0.40000000    0.60000000
    0.50000000    0.40000000    0.65000000
    0.50000000    0.40000000    0.70000000
    0.50000000    0.40000000    0.75000000
    0.50000000    0.40000000    0.80000000
    0.50000000    0.40000000    0.85000000
    0.50000000    0.40000000    0.90000000
    0.50000000    0.40000000    0.95000000
    0.50000000    0.50000000    0.00000000
    0.50000000    0.50000000    0.05000000
    0.50000000    0.50000000    0.10000000
    0.50000000    0.50000000    0.15000000
    0.50000000    0.50000000    0.20000000
    0.50000000    0.50000000    0.25000000
    0.50000000    0.50000000    0.30000000
    0.50000000    0.50000000    0.35000000
    0.50000000    0.50000000    0.40000000
    0.50000000    0.50000000    0.45000000
    0.50000000    0.50000000    0.50000000
    0.50000000    0.50000000    0.55000000
    0.50000000    0.50000000    0.60000000
    0.50000000    0.50000000    0.65000000
    0.50000000    0.50000000    0.70000000
    0.50000000    0.50000000    0.75000000
    0.50000000    0.50000000    0.80000000
    0.50000000    0.50000000    0.85000000
    0.50000000    0.50000000    0.90000000
    0.50000000    0.50000000    0.95000000
    0.50000000    0.60000000    0.00000000
    0.50000000    0.60000000    0.05000000
    0.50000000    0.60000000    0.10000000
    0.50000000    0.60000000    0.15000000
    0.50000000    0.60000000    0.20000000
    0.50000000    0.60000000    0.25000000
    0.50000000    0.60000000    0.30000000
    0.50000000    0.60000000    0.35000000
    0.50000000    0.60000000    0.40000000
    0.50000000    0.60000000    0.45000000
    0.50000000    0.60000000    0.50000000
    0.50000000    0.60000000    0.55000000
    0.50000000    0.60000000    0.60000000
    0.50000000    0.60000000    0.65000000
    0.50000000    0.60000000    0.70000000
    0.50000000    0.60000000    0.75000000
    0.50000000    0.60000000    0.80000000
    0.50000000    0.60000000    0.85000000
    0.50000000    0.60000000    0.90000000
    0.50000000    0.60000000    0.95000000
    0.50000000    0.70000000    0.00000000
    0.50000000    0.70000000    0.05000000
    0.50000000    0.70000000    0.10000000
    0.50000000    0.70000000    0.15000000
    0.50000000    0.70000000    0.20000000
    0.50000000    0.70000000    0.25000000
    0.50000000    0.70000000    0.30000000
    0.50000000    0.70000000    0.35000000
    0.50000000    0.70000000    0.40000000
    0.50000000    0.70000000    0.45000000
    0.50000000    0.70000000    0.50000000
    0.50000000    0.70000000    0.55000000
    0.50000000    0.70000000    0.60000000
    0.50000000    0.70000000    0.65000000
    0.50000000    0.70000000    0.70000000
    0.50000000    0.70000000    0.75000000
    0.50000000    0.70000000    0.80000000
    0.50000000    0.70000000    0.85000000
    0.50000000    0.70000000    0.90000000
    0.50000000    0.70000000    0.95000000
    0.50000000    0.80000000    0.00000000
    0.50000000    0.80000000    0.05000000
    0.50000000    0.80000000    0.10000000
    0.50000000    0.80000000    0.15000000
    0.50000000    0.80000000    0.20000000
    0.50000000    0.80000000    0.25000000
    0.50000000    0.80000000    0.30000000
    0.50000000    0.80000000    0.35000000
    0.50000000    0.80000000    0.40000000
    0.50000000    0.80000000    0.45000000
    0.50000000    0.80000000    0.50000000
    0.50000000    0.80000000    0.55000000
    0.50000000    0.80000000    0.60000000
    0.50000000    0.80000000    0.65000000
    0.50000000    0.80000000    0.70000000
    0.50000000    0.80000000    0.75000000
    0.50000000    0.80000000    0.80000000
    0.50000000    0.80000000    0.85000000
    0.50000000    0.80000000    0.90000000
    0.50000000    0.80000000    0.95000000
    0.50000000    0.90000000    0.00000000
    0.50000000    0.90000000    0.05000000
    0.50000000    0.90000000    0.10000000
    0.50000000    0.90000000    0.15000000
    0.50000000    0.90000000    0.20000000
    0.50000000    0.90000000    0.25000000
    0.50000000    0.90000000    0.30000000
    0.50000000    0.90000000    0.35000000
    0.50000000    0.90000000    0.40000000
    0.50000000    0.90000000    0.45000000
    0.50000000    0.90000000    0.50000000
    0.50000000    0.90000000    0.55000000
    0.50000000    0.90000000    0.60000000
    0.50000000    0.90000000    0.65000000
    0.50000000    0.90000000    0.70000000
    0.50000000    0.90000000    0.75000000
    0.50000000    0.90000000    0.80000000
    0.50000000    0.90000000    0.85000000
    0.50000000    0.90000000    0.90000000
    0.50000000    0.90000000    0.95000000
    0.60000000    0.00000000    0.00000000
    0.60000000    0.00000000    0.05000000
    0.60000000    0.00000000    0.10000000
    0.60000000    0.00000000    0.15000000
    0.60000000    0.00000000    0.20000000
    0.60000000    0.00000000    0.25000000
    0.60000000    0.00000000    0.30000000
    0.60000000    0.00000000    0.35000000
    0.60000000    0.00000000    0.40000000
    0.60000000    0.00000000    0.45000000
    0.60000000    0.00000000    0.50000000
    0.60000000    0.00000000    0.55000000
    0.60000000    0.00000000    0.60000000
    0.60000000    0.00000000    0.65000000
    0.60000000    0.00000000    0.70000000
    0.60000000    0.00000000    0.75000000
    0.60000000    0.00000000    0.80000000
    0.60000000    0.00000000    0.85000000
    0.60000000    0.00000000    0.90000000
    0.60000000    0.00000000    0.95000000
    0.60000000    0.10000000    0.00000000
    0.60000000    0.10000000    0.05000000
    0.60000000    0.10000000    0.10000000
    0.60000000    0.10000000    0.15000000
    0.60000000    0.10000000    0.20000000
    0.60000000    0.10000000    0.25000000
    0.60000000    0.10000000    0.30000000
    0.60000000    0.10000000    0.35000000
    0.60000000    0.10000000    0.40000000
    0.60000000    0.10000000    0.45000000
    0.60000000    0.10000000    0.50000000
    0.60000000    0.10000000    0.55000000
    0.60000000    0.10000000    0.60000000
    0.60000000    0.10000000    0.65000000
    0.60000000    0.10000000    0.70000000
    0.60000000    0.10000000    0.75000000
    0.60000000    0.10000000    0.80000000
    0.60000000    0.10000000    0.85000000
    0.60000000    0.10000000    0.90000000
    0.60000000    0.10000000    0.95000000
    0.60000000    0.20000000    0.00000000
    0.60000000    0.20000000    0.05000000
    0.60000000    0.20000000    0.10000000
    0.60000000    0.20000000    0.15000000
    0.60000000    0.20000000    0.20000000
    0.60000000    0.20000000    0.25000000
    0.60000000    0.20000000    0.30000000
    0.60000000    0.20000000    0.35000000
    0.60000000    0.20000000    0.40000000
    0.60000000    0.20000000    0.45000000
    0.60000000    0.20000000    0.50000000
    0.60000000    0.20000000    0.55000000
    0.60000000    0.20000000    0.60000000
    0.60000000    0.20000000    0.65000000
    0.60000000    0.20000000    0.70000000
    0.60000000    0.20000000    0.75000000
    0.60000000    0.20000000    0.80000000
    0.60000000    0.20000000    0.85000000
    0.60000000    0.20000000    0.90000000
    0.60000000    0.20000000    0.95000000
    0.60000000    0.30000000    0.00000000
    0.60000000    0.30000000    0.05000000
    0.60000000    0.30000000    0.10000000
    0.60000000    0.30000000    0.15000000
    0.60000000    0.30000000    0.20000000
    0.60000000    0.30000000    0.25000000
    0.60000000    0.30000000    0.30000000
    0.60000000    0.30000000    0.35000000
    0.60000000    0.30000000    0.40000000
    0.60000000    0.30000000    0.45000000
    0.60000000    0.30000000    0.50000000
    0.60000000    0.30000000    0.55000000
    0.60000000    0.30000000    0.60000000
    0.60000000    0.30000000    0.65000000
    0.60000000    0.30000000    0.70000000
    0.60000000    0.30000000    0.75000000
    0.60000000    0.30000000    0.80000000
    0.60000000    0.30000000    0.85000000
    0.60000000    0.30000000    0.90000000
    0.60000000    0.30000000    0.95000000
    0.60000000    0.40000000    0.00000000
    0.60000000    0.40000000    0.05000000
    0.60000000    0.40000000    0.10000000
    0.60000000    0.40000000    0.15000000
    0.60000000    0.40000000    0.20000000
    0.60000000    0.40000000    0.25000000
    0.60000000    0.40000000    0.30000000
    0.60000000    0.40000000    0.35000000
    0.60000000    0.40000000    0.40000000
    0.60000000    0.40000000    0.45000000
    0.60000000    0.40000000    0.50000000
    0.60000000    0.40000000    0.55000000
    0.60000000    0.40000000    0.60000000
    0.60000000    0.40000000    0.65000000
    0.60000000    0.40000000    0.70000000
    0.60000000    0.40000000    0.75000000
    0.60000000    0.40000000    0.80000000
    0.60000000    0.40000000    0.85000000
    0.60000000    0.40000000    0.90000000
    0.60000000    0.40000000    0.95000000
    0.60000000    0.50000000    0.00000000
    0.60000000    0.50000000    0.05000000
    0.60000000    0.50000000    0.10000000
    0.60000000    0.50000000    0.15000000
    0.60000000    0.50000000    0.20000000
    0.60000000    0.50000000    0.25000000
    0.60000000    0.50000000    0.30000000
    0.60000000    0.50000000    0.35000000
    0.60000000    0.50000000    0.40000000
    0.60000000    0.50000000    0.45000000
    0.60000000    0.50000000    0.50000000
    0.60000000    0.50000000    0.55000000
    0.60000000    0.50000000    0.60000000
    0.60000000    0.50000000    0.65000000
    0.60000000    0.50000000    0.70000000
    0.60000000    0.50000000    0.75000000
    0.60000000    0.50000000    0.80000000
    0.60000000    0.50000000    0.85000000
    0.60000000    0.50000000    0.90000000
    0.60000000    0.50000000    0.95000000
    0.60000000    0.60000000    0.00000000
    0.60000000    0.60000000    0.05000000
    0.60000000    0.60000000    0.10000000
    0.60000000    0.60000000    0.15000000
    0.60000000    0.60000000    0.20000000
    0.60000000    0.60000000    0.25000000
    0.60000000    0.60000000    0.30000000
    0.60000000    0.60000000    0.35000000
    0.60000000    0.60000000    0.40000000
    0.60000000    0.60000000    0.45000000
    0.60000000    0.60000000    0.50000000
    0.60000000    0.60000000    0.55000000
    0.60000000    0.60000000    0.60000000
    0.60000000    0.60000000    0.65000000
    0.60000000    0.60000000    0.70000000
    0.60000000    0.60000000    0.75000000
    0.60000000    0.60000000    0.80000000
    0.60000000    0.60000000    0.85000000
    0.60000000    0.60000000    0.90000000
    0.60000000    0.60000000    0.95000000
    0.60000000    0.70000000    0.00000000
    0.60000000    0.70000000    0.05000000
    0.60000000    0.70000000    0.10000000
    0.60000000    0.70000000    0.15000000
    0.60000000    0.70000000    0.20000000
    0.60000000    0.70000000    0.25000000
    0.60000000    0.70000000    0.30000000
    0.60000000    0.70000000    0.35000000
    0.60000000    0.70000000    0.40000000
    0.60000000    0.70000000    0.45000000
    0.60000000    0.70000000    0.50000000
    0.60000000    0.70000000    0.55000000
    0.60000000    0.70000000    0.60000000
    0.60000000    0.70000000    0.65000000
    0.60000000    0.70000000    0.70000000
    0.60000000    0.70000000    0.75000000
    0.60000000    0.70000000    0.80000000
    0.60000000    0.70000000    0.85000000
    0.60000000    0.70000000    0.90000000
    0.60000000    0.70000000    0.95000000
    0.60000000    0.80000000    0.00000000
    0.60000000    0.80000000    0.05000000
    0.60000000    0.80000000    0.10000000
    0.60000000    0.80000000    0.15000000
    0.60000000    0.80000000    0.20000000
    0.60000000    0.80000000    0.25000000
    0.60000000    0.80000000    0.30000000
    0.60000000    0.80000000    0.35000000
    0.60000000    0.80000000    0.40000000
    0.60000000    0.80000000    0.45000000
    0.60000000    0.80000000    0.50000000
    0.60000000    0.80000000    0.55000000
    0.60000000    0.80000000    0.60000000
    0.60000000    0.80000000    0.65000000
    0.60000000    0.80000000    0.70000000
    0.60000000    0.80000000    0.75000000
    0.60000000    0.80000000    0.80000000
    0.60000000    0.80000000    0.85000000
    0.60000000    0.80000000    0.90000000
    0.60000000    0.80000000    0.95000000
    0.60000000    0.90000000    0.00000000
    0.60000000    0.90000000    0.05000000
    0.60000000    0.90000000    0.10000000
    0.60000000    0.90000000    0.15000000
    0.60000000    0.90000000    0.20000000
    0.60000000    0.90000000    0.25000000
    0.60000000    0.90000000    0.30000000
    0.60000000    0.90000000    0.35000000
    0.60000000    0.90000000    0.40000000
    0.60000000    0.90000000    0.45000000
    0.60000000    0.90000000    0.50000000
    0.60000000    0.90000000    0.55000000
    0.60000000    0.90000000    0.60000000
    0.60000000    0.90000000    0.65000000
    0.60000000    0.90000000    0.70000000
    0.60000000    0.90000000    0.75000000
    0.60000000    0.90000000    0.80000000
    0.60000000    0.90000000    0.85000000
    0.60000000    0.90000000    0.90000000
    0.60000000    0.90000000    0.95000000
    0.70000000    0.00000000    0.00000000
    0.70000000    0.00000000    0.05000000
    0.70000000    0.00000000    0.10000000
    0.70000000    0.00000000    0.15000000
    0.70000000    0.00000000    0.20000000
    0.70000000    0.00000000    0.25000000
    0.70000000    0.00000000    0.30000000
    0.70000000    0.00000000    0.35000000
    0.70000000    0.00000000    0.40000000
    0.70000000    0.00000000    0.45000000
    0.70000000    0.00000000    0.50000000
    0.70000000    0.00000000    0.55000000
    0.70000000    0.00000000    0.60000000
    0.70000000    0.00000000    0.65000000
    0.70000000    0.00000000    0.70000000
    0.70000000    0.00000000    0.75000000
    0.70000000    0.00000000    0.80000000
    0.70000000    0.00000000    0.85000000
    0.70000000    0.00000000    0.90000000
    0.70000000    0.00000000    0.95000000
    0.70000000    0.10000000    0.00000000
    0.70000000    0.10000000    0.05000000
    0.70000000    0.10000000    0.10000000
    0.70000000    0.10000000    0.15000000
    0.70000000    0.10000000    0.20000000
    0.70000000    0.10000000    0.25000000
    0.70000000    0.10000000    0.30000000
    0.70000000    0.10000000    0.35000000
    0.70000000    0.10000000    0.40000000
    0.70000000    0.10000000    0.45000000
    0.70000000    0.10000000    0.50000000
    0.70000000    0.10000000    0.55000000
    0.70000000    0.10000000    0.60000000
    0.70000000    0.10000000    0.65000000
    0.70000000    0.10000000    0.70000000
    0.70000000    0.10000000    0.75000000
    0.70000000    0.10000000    0.80000000
    0.70000000    0.10000000    0.85000000
    0.70000000    0.10000000    0.90000000
    0.70000000    0.10000000    0.95000000
    0.70000000    0.20000000    0.00000000
    0.70000000    0.20000000    0.05000000
    0.70000000    0.20000000    0.10000000
    0.70000000    0.20000000    0.15000000
    0.70000000    0.20000000    0.20000000
    0.70000000    0.20000000    0.25000000
    0.70000000    0.20000000    0.30000000
    0.70000000    0.20000000    0.35000000
    0.70000000    0.20000000    0.40000000
    0.70000000    0.20000000    0.45000000
    0.70000000    0.20000000    0.50000000
    0.70000000    0.20000000    0.55000000
    0.70000000    0.20000000    0.60000000
    0.70000000    0.20000000    0.65000000
    0.70000000    0.20000000    0.70000000
    0.70000000    0.20000000    0.75000000
    0.70000000    0.20000000    0.80000000
    0.70000000    0.20000000    0.85000000
    0.70000000    0.20000000    0.90000000
    0.70000000    0.20000000    0.95000000
    0.70000000    0.30000000    0.00000000
    0.70000000    0.30000000    0.05000000
    0.70000000    0.30000000    0.10000000
    0.70000000    0.30000000    0.15000000
    0.70000000    0.30000000    0.20000000
    0.70000000    0.30000000    0.25000000
    0.70000000    0.30000000    0.30000000
    0.70000000    0.30000000    0.35000000
    0.70000000    0.30000000    0.40000000
    0.70000000    0.30000000    0.45000000
    0.70000000    0.30000000    0.50000000
    0.70000000    0.30000000    0.55000000
    0.70000000    0.30000000    0.60000000
    0.70000000    0.30000000    0.65000000
    0.70000000    0.30000000    0.70000000
    0.70000000    0.30000000    0.75000000
    0.70000000    0.30000000    0.80000000
    0.70000000    0.30000000    0.85000000
    0.70000000    0.30000000    0.90000000
    0.70000000    0.30000000    0.95000000
    0.70000000    0.40000000    0.00000000
    0.70000000    0.40000000    0.05000000
    0.70000000    0.40000000    0.10000000
    0.70000000    0.40000000    0.15000000
    0.70000000    0.40000000    0.20000000
    0.70000000    0.40000000    0.25000000
    0.70000000    0.40000000    0.30000000
    0.70000000    0.40000000    0.35000000
    0.70000000    0.40000000    0.40000000
    0.70000000    0.40000000    0.45000000
    0.70000000    0.40000000    0.50000000
    0.70000000    0.40000000    0.55000000
    0.70000000    0.40000000    0.60000000
    0.70000000    0.40000000    0.65000000
    0.70000000    0.40000000    0.70000000
    0.70000000    0.40000000    0.75000000
    0.70000000    0.40000000    0.80000000
    0.70000000    0.40000000    0.85000000
    0.70000000    0.40000000    0.90000000
    0.70000000    0.40000000    0.95000000
    0.70000000    0.50000000    0.00000000
    0.70000000    0.50000000    0.05000000
    0.70000000    0.50000000    0.10000000
    0.70000000    0.50000000    0.15000000
    0.70000000    0.50000000    0.20000000
    0.70000000    0.50000000    0.25000000
    0.70000000    0.50000000    0.30000000
    0.70000000    0.50000000    0.35000000
    0.70000000    0.50000000    0.40000000
    0.70000000    0.50000000    0.45000000
    0.70000000    0.50000000    0.50000000
    0.70000000    0.50000000    0.55000000
    0.70000000    0.50000000    0.60000000
    0.70000000    0.50000000    0.65000000
    0.70000000    0.50000000    0.70000000
    0.70000000    0.50000000    0.75000000
    0.70000000    0.50000000    0.80000000
    0.70000000    0.50000000    0.85000000
    0.70000000    0.50000000    0.90000000
    0.70000000    0.50000000    0.95000000
    0.70000000    0.60000000    0.00000000
    0.70000000    0.60000000    0.05000000
    0.70000000    0.60000000    0.10000000
    0.70000000    0.60000000    0.15000000
    0.70000000    0.60000000    0.20000000
    0.70000000    0.60000000    0.25000000
    0.70000000    0.60000000    0.30000000
    0.70000000    0.60000000    0.35000000
    0.70000000    0.60000000    0.40000000
    0.70000000    0.60000000    0.45000000
    0.70000000    0.60000000    0.50000000
    0.70000000    0.60000000    0.55000000
    0.70000000    0.60000000    0.60000000
    0.70000000    0.60000000    0.65000000
    0.70000000    0.60000000    0.70000000
    0.70000000    0.60000000    0.75000000
    0.70000000    0.60000000    0.80000000
    0.70000000    0.60000000    0.85000000
    0.70000000    0.60000000    0.90000000
    0.70000000    0.60000000    0.95000000
    0.70000000    0.70000000    0.00000000
    0.70000000    0.70000000    0.05000000
    0.70000000    0.70000000    0.10000000
    0.70000000    0.70000000    0.15000000
    0.70000000    0.70000000    0.20000000
    0.70000000    0.70000000    0.25000000
    0.70000000    0.70000000    0.30000000
    0.70000000    0.70000000    0.35000000
    0.70000000    0.70000000    0.40000000
    0.70000000    0.70000000    0.45000000
    0.70000000    0.70000000    0.50000000
    0.70000000    0.70000000    0.55000000
    0.70000000    0.70000000    0.60000000
    0.70000000    0.70000000    0.65000000
    0.70000000    0.70000000    0.70000000
    0.70000000    0.70000000    0.75000000
    0.70000000    0.70000000    0.80000000
    0.70000000    0.70000000    0.85000000
    0.70000000    0.70000000    0.90000000
    0.70000000    0.70000000    0.95000000
    0.70000000    0.80000000    0.00000000
    0.70000000    0.80000000    0.05000000
    0.70000000    0.80000000    0.10000000
    0.70000000    0.80000000    0.15000000
    0.70000000    0.80000000    0.20000000
    0.70000000    0.80000000    0.25000000
    0.70000000    0.80000000    0.30000000
    0.70000000    0.80000000    0.35000000
    0.70000000    0.80000000    0.40000000
    0.70000000    0.80000000    0.45000000
    0.70000000    0.80000000    0.50000000
    0.70000000    0.80000000    0.55000000
    0.70000000    0.80000000    0.60000000
    0.70000000    0.80000000    0.65000000
    0.70000000    0.80000000    0.70000000
    0.70000000    0.80000000    0.75000000
    0.70000000    0.80000000    0.80000000
    0.70000000    0.80000000    0.85000000
    0.70000000    0.80000000    0.90000000
    0.70000000    0.80000000    0.95000000
    0.70000000    0.90000000    0.00000000
    0.70000000    0.90000000    0.05000000
    0.70000000    0.90000000    0.10000000
    0.70000000    0.90000000    0.15000000
    0.70000000    0.90000000    0.20000000
    0.70000000    0.90000000    0.25000000
    0.70000000    0.90000000    0.30000000
    0.70000000    0.90000000    0.35000000
    0.70000000    0.90000000    0.40000000
    0.70000000    0.90000000    0.45000000
    0.70000000    0.90000000    0.50000000
    0.70000000    0.90000000    0.55000000
    0.70000000    0.90000000    0.60000000
    0.70000000    0.90000000    0.65000000
    0.70000000    0.90000000    0.70000000
    0.70000000    0.90000000    0.75000000
    0.70000000    0.90000000    0.80000000
    0.70000000    0.90000000    0.85000000
    0.70000000    0.90000000    0.90000000
    0.70000000    0.90000000    0.95000000
    0.80000000    0.00000000    0.00000000
    0.80000000    0.00000000    0.05000000
    0.80000000    0.00000000    0.10000000
    0.80000000    0.00000000    0.15000000
    0.80000000    0.00000000    0.20000000
    0.80000000    0.00000000    0.25000000
    0.80000000    0.00000000    0.30000000
    0.80000000    0.00000000    0.35000000
    0.80000000    0.00000000    0.40000000
    0.80000000    0.00000000    0.45000000
    0.80000000    0.00000000    0.50000000
    0.80000000    0.00000000    0.55000000
    0.80000000    0.00000000    0.60000000
    0.80000000    0.00000000    0.65000000
    0.80000000    0.00000000    0.70000000
    0.80000000    0.00000000    0.75000000
    0.80000000    0.00000000    0.80000000
    0.80000000    0.00000000    0.85000000
    0.80000000    0.00000000    0.90000000
    0.80000000    0.00000000    0.95000000
    0.80000000    0.10000000    0.00000000
    0.80000000    0.10000000    0.05000000
    0.80000000    0.10000000    0.10000000
    0.80000000    0.10000000    0.15000000
    0.80000000    0.10000000    0.20000000
    0.80000000    0.10000000    0.25000000
    0.80000000    0.10000000    0.30000000
    0.80000000    0.10000000    0.35000000
    0.80000000    0.10000000    0.40000000
    0.80000000    0.10000000    0.45000000
    0.80000000    0.10000000    0.50000000
    0.80000000    0.10000000    0.55000000
    0.80000000    0.10000000    0.60000000
    0.80000000    0.10000000    0.65000000
    0.80000000    0.10000000    0.70000000
    0.80000000    0.10000000    0.75000000
    0.80000000    0.10000000    0.80000000
    0.80000000    0.10000000    0.85000000
    0.80000000    0.10000000    0.90000000
    0.80000000    0.10000000    0.95000000
    0.80000000    0.20000000    0.00000000
    0.80000000    0.20000000    0.05000000
    0.80000000    0.20000000    0.10000000
    0.80000000    0.20000000    0.15000000
    0.80000000    0.20000000    0.20000000
    0.80000000    0.20000000    0.25000000
    0.80000000    0.20000000    0.30000000
    0.80000000    0.20000000    0.35000000
    0.80000000    0.20000000    0.40000000
    0.80000000    0.20000000    0.45000000
    0.80000000    0.20000000    0.50000000
    0.80000000    0.20000000    0.55000000
    0.80000000    0.20000000    0.60000000
    0.80000000    0.20000000    0.65000000
    0.80000000    0.20000000    0.70000000
    0.80000000    0.20000000    0.75000000
    0.80000000    0.20000000    0.80000000
    0.80000000    0.20000000    0.85000000
    0.80000000    0.20000000    0.90000000
    0.80000000    0.20000000    0.95000000
    0.80000000    0.30000000    0.00000000
    0.80000000    0.30000000    0.05000000
    0.80000000    0.30000000    0.10000000
    0.80000000    0.30000000    0.15000000
    0.80000000    0.30000000    0.20000000
    0.80000000    0.30000000    0.25000000
    0.80000000    0.30000000    0.30000000
    0.80000000    0.30000000    0.35000000
    0.80000000    0.30000000    0.40000000
    0.80000000    0.30000000    0.45000000
    0.80000000    0.30000000    0.50000000
    0.80000000    0.30000000    0.55000000
    0.80000000    0.30000000    0.60000000
    0.80000000    0.30000000    0.65000000
    0.80000000    0.30000000    0.70000000
    0.80000000    0.30000000    0.75000000
    0.80000000    0.30000000    0.80000000
    0.80000000    0.30000000    0.85000000
    0.80000000    0.30000000    0.90000000
    0.80000000    0.30000000    0.95000000
    0.80000000    0.40000000    0.00000000
    0.80000000    0.40000000    0.05000000
    0.80000000    0.40000000    0.10000000
    0.80000000    0.40000000    0.15000000
    0.80000000    0.40000000    0.20000000
    0.80000000    0.40000000    0.25000000
    0.80000000    0.40000000    0.30000000
    0.80000000    0.40000000    0.35000000
    0.80000000    0.40000000    0.40000000
    0.80000000    0.40000000    0.45000000
    0.80000000    0.40000000    0.50000000
    0.80000000    0.40000000    0.55000000
    0.80000000    0.40000000    0.60000000
    0.80000000    0.40000000    0.65000000
    0.80000000    0.40000000    0.70000000
    0.80000000    0.40000000    0.75000000
    0.80000000    0.40000000    0.80000000
    0.80000000    0.40000000    0.85000000
    0.80000000    0.40000000    0.90000000
    0.80000000    0.40000000    0.95000000
    0.80000000    0.50000000    0.00000000
    0.80000000    0.50000000    0.05000000
    0.80000000    0.50000000    0.10000000
    0.80000000    0.50000000    0.15000000
    0.80000000    0.50000000    0.20000000
    0.80000000    0.50000000    0.25000000
    0.80000000    0.50000000    0.30000000
    0.80000000    0.50000000    0.35000000
    0.80000000    0.50000000    0.40000000
    0.80000000    0.50000000    0.45000000
    0.80000000    0.50000000    0.50000000
    0.80000000    0.50000000    0.55000000
    0.80000000    0.50000000    0.60000000
    0.80000000    0.50000000    0.65000000
    0.80000000    0.50000000    0.70000000
    0.80000000    0.50000000    0.75000000
    0.80000000    0.50000000    0.80000000
    0.80000000    0.50000000    0.85000000
    0.80000000    0.50000000    0.90000000
    0.80000000    0.50000000    0.95000000
    0.80000000    0.60000000    0.00000000
    0.80000000    0.60000000    0.05000000
    0.80000000    0.60000000    0.10000000
    0.80000000    0.60000000    0.15000000
    0.80000000    0.60000000    0.20000000
    0.80000000    0.60000000    0.25000000
    0.80000000    0.60000000    0.30000000
    0.80000000    0.60000000    0.35000000
    0.80000000    0.60000000    0.40000000
    0.80000000    0.60000000    0.45000000
    0.80000000    0.60000000    0.50000000
    0.80000000    0.60000000    0.55000000
    0.80000000    0.60000000    0.60000000
    0.80000000    0.60000000    0.65000000
    0.80000000    0.60000000    0.70000000
    0.80000000    0.60000000    0.75000000
    0.80000000    0.60000000    0.80000000
    0.80000000    0.60000000    0.85000000
    0.80000000    0.60000000    0.90000000
    0.80000000    0.60000000    0.95000000
    0.80000000    0.70000000    0.00000000
    0.80000000    0.70000000    0.05000000
    0.80000000    0.70000000    0.10000000
    0.80000000    0.70000000    0.15000000
    0.80000000    0.70000000    0.20000000
    0.80000000    0.70000000    0.25000000
    0.80000000    0.70000000    0.30000000
    0.80000000    0.70000000    0.35000000
    0.80000000    0.70000000    0.40000000
    0.80000000    0.70000000    0.45000000
    0.80000000    0.70000000    0.50000000
    0.80000000    0.70000000    0.55000000
    0.80000000    0.70000000    0.60000000
    0.80000000    0.70000000    0.65000000
    0.80000000    0.70000000    0.70000000
    0.80000000    0.70000000    0.75000000
    0.80000000    0.70000000    0.80000000
    0.80000000    0.70000000    0.85000000
    0.80000000    0.70000000    0.90000000
    0.80000000    0.70000000    0.95000000
    0.80000000    0.80000000    0.00000000
    0.80000000    0.80000000    0.05000000
    0.80000000    0.80000000    0.10000000
    0.80000000    0.80000000    0.15000000
    0.80000000    0.80000000    0.20000000
    0.80000000    0.80000000    0.25000000
    0.80000000    0.80000000    0.30000000
    0.80000000    0.80000000    0.35000000
    0.80000000    0.80000000    0.40000000
    0.80000000    0.80000000    0.45000000
    0.80000000    0.80000000    0.50000000
    0.80000000    0.80000000    0.55000000
    0.80000000    0.80000000    0.60000000
    0.80000000    0.80000000    0.65000000
    0.80000000    0.80000000    0.70000000
    0.80000000    0.80000000    0.75000000
    0.80000000    0.80000000    0.80000000
    0.80000000    0.80000000    0.85000000
    0.80000000    0.80000000    0.90000000
    0.80000000    0.80000000    0.95000000
    0.80000000    0.90000000    0.00000000
    0.80000000    0.90000000    0.05000000
    0.80000000    0.90000000    0.10000000
    0.80000000    0.90000000    0.15000000
    0.80000000    0.90000000    0.20000000
    0.80000000    0.90000000    0.25000000
    0.80000000    0.90000000    0.30000000
    0.80000000    0.90000000    0.35000000
    0.80000000    0.90000000    0.40000000
    0.80000000    0.90000000    0.45000000
    0.80000000    0.90000000    0.50000000
    0.80000000    0.90000000    0.55000000
    0.80000000    0.90000000    0.60000000
    0.80000000    0.90000000    0.65000000
    0.80000000    0.90000000    0.70000000
    0.80000000    0.90000000    0.75000000
    0.80000000    0.90000000    0.80000000
    0.80000000    0.90000000    0.85000000
    0.80000000    0.90000000    0.90000000
    0.80000000    0.90000000    0.95000000
    0.90000000    0.00000000    0.00000000
    0.90000000    0.00000000    0.05000000
    0.90000000    0.00000000    0.10000000
    0.90000000    0.00000000    0.15000000
    0.90000000    0.00000000    0.20000000
    0.90000000    0.00000000    0.25000000
    0.90000000    0.00000000    0.30000000
    0.90000000    0.00000000    0.35000000
    0.90000000    0.00000000    0.40000000
    0.90000000    0.00000000    0.45000000
    0.90000000    0.00000000    0.50000000
    0.90000000    0.00000000    0.55000000
    0.90000000    0.00000000    0.60000000
    0.90000000    0.00000000    0.65000000
    0.90000000    0.00000000    0.70000000
    0.90000000    0.00000000    0.75000000
    0.90000000    0.00000000    0.80000000
    0.90000000    0.00000000    0.85000000
    0.90000000    0.00000000    0.90000000
    0.90000000    0.00000000    0.95000000
    0.90000000    0.10000000    0.00000000
    0.90000000    0.10000000    0.05000000
    0.90000000    0.10000000    0.10000000
    0.90000000    0.10000000    0.15000000
    0.90000000    0.10000000    0.20000000
    0.90000000    0.10000000    0.25000000
    0.90000000    0.10000000    0.30000000
    0.90000000    0.10000000    0.35000000
    0.90000000    0.10000000    0.40000000
    0.90000000    0.10000000    0.45000000
    0.90000000    0.10000000    0.50000000
    0.90000000    0.10000000    0.55000000
    0.90000000    0.10000000    0.60000000
    0.90000000    0.10000000    0.65000000
    0.90000000    0.10000000    0.70000000
    0.90000000    0.10000000    0.75000000
    0.90000000    0.10000000    0.80000000
    0.90000000    0.10000000    0.85000000
    0.90000000    0.10000000    0.90000000
    0.90000000    0.10000000    0.95000000
    0.90000000    0.20000000    0.00000000
    0.90000000    0.20000000    0.05000000
    0.90000000    0.20000000    0.10000000
    0.90000000    0.20000000    0.15000000
    0.90000000    0.20000000    0.20000000
    0.90000000    0.20000000    0.25000000
    0.90000000    0.20000000    0.30000000
    0.90000000    0.20000000    0.35000000
    0.90000000    0.20000000    0.40000000
    0.90000000    0.20000000    0.45000000
    0.90000000    0.20000000    0.50000000
[...]
  1882  1881      0   0   0
  1882  1883      0   0   0
  1882  1682      0   0   0
  1882    82      1   0   0
  1883  1863      0   0   0
  1883  1903      0   0   0
  1883  1882      0   0   0
  1883  1884      0   0   0
  1883  1683      0   0   0
  1883    83      1   0   0
  1884  1864      0   0   0
  1884  1904      0   0   0
  1884  1883      0   0   0
  1884  1885      0   0   0
  1884  1684      0   0   0
  1884    84      1   0   0
  1885  1865      0   0   0
  1885  1905      0   0   0
  1885  1884      0   0   0
  1885  1886      0   0   0
  1885  1685      0   0   0
  1885    85      1   0   0
  1886  1866      0   0   0
  1886  1906      0   0   0
  1886  1885      0   0   0
  1886  1887      0   0   0
  1886  1686      0   0   0
  1886    86      1   0   0
  1887  1867      0   0   0
  1887  1907      0   0   0
  1887  1886      0   0   0
  1887  1888      0   0   0
  1887  1687      0   0   0
  1887    87      1   0   0
  1888  1868      0   0   0
  1888  1908      0   0   0
  1888  1887      0   0   0
  1888  1889      0   0   0
  1888  1688      0   0   0
  1888    88      1   0   0
  1889  1869      0   0   0
  1889  1909      0   0   0
  1889  1888      0   0   0
  1889  1890      0   0   0
  1889  1689      0   0   0
  1889    89      1   0   0
  1890  1870      0   0   0
  1890  1910      0   0   0
  1890  1889      0   0   0
  1890  1891      0   0   0
  1890  1690      0   0   0
  1890    90      1   0   0
  1891  1871      0   0   0
  1891  1911      0   0   0
  1891  1890      0   0   0
  1891  1892      0   0   0
  1891  1691      0   0   0
  1891    91      1   0   0
  1892  1872      0   0   0
  1892  1912      0   0   0
  1892  1891      0   0   0
  1892  1893      0   0   0
  1892  1692      0   0   0
  1892    92      1   0   0
  1893  1873      0   0   0
  1893  1913      0   0   0
  1893  1892      0   0   0
  1893  1894      0   0   0
  1893  1693      0   0   0
  1893    93      1   0   0
  1894  1874      0   0   0
  1894  1914      0   0   0
  1894  1893      0   0   0
  1894  1895      0   0   0
  1894  1694      0   0   0
  1894    94      1   0   0
  1895  1875      0   0   0
  1895  1915      0   0   0
  1895  1894      0   0   0
  1895  1896      0   0   0
  1895  1695      0   0   0
  1895    95      1   0   0
  1896  1876      0   0   0
  1896  1916      0   0   0
  1896  1895      0   0   0
  1896  1897      0   0   0
  1896  1696      0   0   0
  1896    96      1   0   0
  1897  1877      0   0   0
  1897  1917      0   0   0
  1897  1896      0   0   0
  1897  1898      0   0   0
  1897  1697      0   0   0
  1897    97      1   0   0
  1898  1878      0   0   0
  1898  1918      0   0   0
  1898  1897      0   0   0
  1898  1899      0   0   0
  1898  1698      0   0   0
  1898    98      1   0   0
  1899  1879      0   0   0
  1899  1919      0   0   0
  1899  1898      0   0   0
  1899  1900      0   0   0
  1899  1699      0   0   0
  1899    99      1   0   0
  1900  1880      0   0   0
  1900  1920      0   0   0
  1900  1899      0   0   0
  1900  1881      0   0   1
  1900  1700      0   0   0
  1900   100      1   0   0
  1901  1881      0   0   0
  1901  1921      0   0   0
  1901  1902      0   0   0
  1901  1920      0   0  -1
  1901  1701      0   0   0
  1901   101      1   0   0
  1902  1882      0   0   0
  1902  1922      0   0   0
  1902  1901      0   0   0
  1902  1903      0   0   0
  1902  1702      0   0   0
  1902   102      1   0   0
  1903  1883      0   0   0
  1903  1923      0   0   0
  1903  1902      0   0   0
  1903  1904      0   0   0
  1903  1703      0   0   0
  1903   103      1   0   0
  1904  1884      0   0   0
  1904  1924      0   0   0
  1904  1903      0   0   0
  1904  1905      0   0   0
  1904  1704      0   0   0
  1904   104      1   0   0
  1905  1885      0   0   0
  1905  1925      0   0   0
  1905  1904      0   0   0
  1905  1906      0   0   0
  1905  1705      0   0   0
  1905   105      1   0   0
  1906  1886      0   0   0
  1906  1926      0   0   0
  1906  1905      0   0   0
  1906  1907      0   0   0
  1906  1706      0   0   0
  1906   106      1   0   0
  1907  1887      0   0   0
  1907  1927      0   0   0
  1907  1906      0   0   0
  1907  1908      0   0   0
  1907  1707      0   0   0
  1907   107      1   0   0
  1908  1888      0   0   0
  1908  1928      0   0   0
  1908  1907      0   0   0
  1908  1909      0   0   0
  1908  1708      0   0   0
  1908   108      1   0   0
  1909  1889      0   0   0
  1909  1929      0   0   0
  1909  1908      0   0   0
  1909  1910      0   0   0
  1909  1709      0   0   0
  1909   109      1   0   0
  1910  1890      0   0   0
  1910  1930      0   0   0
  1910  1909      0   0   0
  1910  1911      0   0   0
  1910  1710      0   0   0
  1910   110      1   0   0
  1911  1891      0   0   0
  1911  1931      0   0   0
  1911  1910      0   0   0
  1911  1912      0   0   0
  1911  1711      0   0   0
  1911   111      1   0   0
  1912  1892      0   0   0
  1912  1932      0   0   0
  1912  1911      0   0   0
  1912  1913      0   0   0
  1912  1712      0   0   0
  1912   112      1   0   0
  1913  1893      0   0   0
  1913  1933      0   0   0
  1913  1912      0   0   0
  1913  1914      0   0   0
  1913  1713      0   0   0
  1913   113      1   0   0
  1914  1894      0   0   0
  1914  1934      0   0   0
  1914  1913      0   0   0
  1914  1915      0   0   0
  1914  1714      0   0   0
  1914   114      1   0   0
  1915  1895      0   0   0
  1915  1935      0   0   0
  1915  1914      0   0   0
  1915  1916      0   0   0
  1915  1715      0   0   0
  1915   115      1   0   0
  1916  1896      0   0   0
  1916  1936      0   0   0
  1916  1915      0   0   0
  1916  1917      0   0   0
  1916  1716      0   0   0
  1916   116      1   0   0
  1917  1897      0   0   0
  1917  1937      0   0   0
  1917  1916      0   0   0
  1917  1918      0   0   0
  1917  1717      0   0   0
  1917   117      1   0   0
  1918  1898      0   0   0
  1918  1938      0   0   0
  1918  1917      0   0   0
  1918  1919      0   0   0
  1918  1718      0   0   0
  1918   118      1   0   0
  1919  1899      0   0   0
  1919  1939      0   0   0
  1919  1918      0   0   0
  1919  1920      0   0   0
  1919  1719      0   0   0
  1919   119      1   0   0
  1920  1900      0   0   0
  1920  1940      0   0   0
  1920  1919      0   0   0
  1920  1901      0   0   1
  1920  1720      0   0   0
  1920   120      1   0   0
  1921  1901      0   0   0
  1921  1941      0   0   0
  1921  1922      0   0   0
  1921  1940      0   0  -1
  1921  1721      0   0   0
  1921   121      1   0   0
  1922  1902      0   0   0
  1922  1942      0   0   0
  1922  1921      0   0   0
  1922  1923      0   0   0
  1922  1722      0   0   0
  1922   122      1   0   0
  1923  1903      0   0   0
  1923  1943      0   0   0
  1923  1922      0   0   0
  1923  1924      0   0   0
  1923  1723      0   0   0
  1923   123      1   0   0
  1924  1904      0   0   0
  1924  1944      0   0   0
  1924  1923      0   0   0
  1924  1925      0   0   0
  1924  1724      0   0   0
  1924   124      1   0   0
  1925  1905      0   0   0
  1925  1945      0   0   0
  1925  1924      0   0   0
  1925  1926      0   0   0
  1925  1725      0   0   0
  1925   125      1   0   0
  1926  1906      0   0   0
  1926  1946      0   0   0
  1926  1925      0   0   0
  1926  1927      0   0   0
  1926  1726      0   0   0
  1926   126      1   0   0
  1927  1907      0   0   0
  1927  1947      0   0   0
  1927  1926      0   0   0
  1927  1928      0   0   0
  1927  1727      0   0   0
  1927   127      1   0   0
  1928  1908      0   0   0
  1928  1948      0   0   0
  1928  1927      0   0   0
  1928  1929      0   0   0
  1928  1728      0   0   0
  1928   128      1   0   0
  1929  1909      0   0   0
  1929  1949      0   0   0
  1929  1928      0   0   0
  1929  1930      0   0   0
  1929  1729      0   0   0
  1929   129      1   0   0
  1930  1910      0   0   0
  1930  1950      0   0   0
  1930  1929      0   0   0
  1930  1931      0   0   0
  1930  1730      0   0   0
  1930   130      1   0   0
  1931  1911      0   0   0
  1931  1951      0   0   0
  1931  1930      0   0   0
  1931  1932      0   0   0
  1931  1731      0   0   0
  1931   131      1   0   0
  1932  1912      0   0   0
  1932  1952      0   0   0
  1932  1931      0   0   0
  1932  1933      0   0   0
  1932  1732      0   0   0
  1932   132      1   0   0
  1933  1913      0   0   0
  1933  1953      0   0   0
  1933  1932      0   0   0
  1933  1934      0   0   0
  1933  1733      0   0   0
  1933   133      1   0   0
  1934  1914      0   0   0
  1934  1954      0   0   0
  1934  1933      0   0   0
  1934  1935      0   0   0
  1934  1734      0   0   0
  1934   134      1   0   0
  1935  1915      0   0   0
  1935  1955      0   0   0
  1935  1934      0   0   0
  1935  1936      0   0   0
  1935  1735      0   0   0
  1935   135      1   0   0
  1936  1916      0   0   0
  1936  1956      0   0   0
  1936  1935      0   0   0
  1936  1937      0   0   0
  1936  1736      0   0   0
  1936   136      1   0   0
  1937  1917      0   0   0
  1937  1957      0   0   0
  1937  1936      0   0   0
  1937  1938      0   0   0
  1937  1737      0   0   0
  1937   137      1   0   0
  1938  1918      0   0   0
  1938  1958      0   0   0
  1938  1937      0   0   0
  1938  1939      0   0   0
  1938  1738      0   0   0
  1938   138      1   0   0
  1939  1919      0   0   0
  1939  1959      0   0   0
  1939  1938      0   0   0
  1939  1940      0   0   0
  1939  1739      0   0   0
  1939   139      1   0   0
  1940  1920      0   0   0
  1940  1960      0   0   0
  1940  1939      0   0   0
  1940  1921      0   0   1
  1940  1740      0   0   0
  1940   140      1   0   0
  1941  1921      0   0   0
  1941  1961      0   0   0
  1941  1942      0   0   0
  1941  1960      0   0  -1
  1941  1741      0   0   0
  1941   141      1   0   0
  1942  1922      0   0   0
  1942  1962      0   0   0
  1942  1941      0   0   0
  1942  1943      0   0   0
  1942  1742      0   0   0
  1942   142      1   0   0
  1943  1923      0   0   0
  1943  1963      0   0   0
  1943  1942      0   0   0
  1943  1944      0   0   0
  1943  1743      0   0   0
  1943   143      1   0   0
  1944  1924      0   0   0
  1944  1964      0   0   0
  1944  1943      0   0   0
  1944  1945      0   0   0
  1944  1744      0   0   0
  1944   144      1   0   0
  1945  1925      0   0   0
  1945  1965      0   0   0
  1945  1944      0   0   0
  1945  1946      0   0   0
  1945  1745      0   0   0
  1945   145      1   0   0
  1946  1926      0   0   0
  1946  1966      0   0   0
  1946  1945      0   0   0
  1946  1947      0   0   0
  1946  1746      0   0   0
  1946   146      1   0   0
  1947  1927      0   0   0
  1947  1967      0   0   0
  1947  1946      0   0   0
  1947  1948      0   0   0
  1947  1747      0   0   0
  1947   147      1   0   0
  1948  1928      0   0   0
  1948  1968      0   0   0
  1948  1947      0   0   0
  1948  1949      0   0   0
  1948  1748      0   0   0
  1948   148      1   0   0
  1949  1929      0   0   0
  1949  1969      0   0   0
  1949  1948      0   0   0
  1949  1950      0   0   0
  1949  1749      0   0   0
  1949   149      1   0   0
  1950  1930      0   0   0
  1950  1970      0   0   0
  1950  1949      0   0   0
  1950  1951      0   0   0
  1950  1750      0   0   0
  1950   150      1   0   0
  1951  1931      0   0   0
  1951  1971      0   0   0
  1951  1950      0   0   0
  1951  1952      0   0   0
  1951  1751      0   0   0
  1951   151      1   0   0
  1952  1932      0   0   0
  1952  1972      0   0   0
  1952  1951      0   0   0
  1952  1953      0   0   0
  1952  1752      0   0   0
  1952   152      1   0   0
  1953  1933      0   0   0
  1953  1973      0   0   0
  1953  1952      0   0   0
  1953  1954      0   0   0
  1953  1753      0   0   0
  1953   153      1   0   0
  1954  1934      0   0   0
  1954  1974      0   0   0
  1954  1953      0   0   0
  1954  1955      0   0   0
  1954  1754      0   0   0
  1954   154      1   0   0
  1955  1935      0   0   0
  1955  1975      0   0   0
  1955  1954      0   0   0
  1955  1956      0   0   0
  1955  1755      0   0   0
  1955   155      1   0   0
  1956  1936      0   0   0
  1956  1976      0   0   0
  1956  1955      0   0   0
  1956  1957      0   0   0
  1956  1756      0   0   0
  1956   156      1   0   0
  1957  1937      0   0   0
  1957  1977      0   0   0
  1957  1956      0   0   0
  1957  1958      0   0   0
  1957  1757      0   0   0
  1957   157      1   0   0
  1958  1938      0   0   0
  1958  1978      0   0   0
  1958  1957      0   0   0
  1958  1959      0   0   0
  1958  1758      0   0   0
  1958   158      1   0   0
  1959  1939      0   0   0
  1959  1979      0   0   0
  1959  1958      0   0   0
  1959  1960      0   0   0
  1959  1759      0   0   0
  1959   159      1   0   0
  1960  1940      0   0   0
  1960  1980      0   0   0
  1960  1959      0   0   0
  1960  1941      0   0   1
  1960  1760      0   0   0
  1960   160      1   0   0
  1961  1941      0   0   0
  1961  1981      0   0   0
  1961  1962      0   0   0
  1961  1980      0   0  -1
  1961  1761      0   0   0
  1961   161      1   0   0
  1962  1942      0   0   0
  1962  1982      0   0   0
  1962  1961      0   0   0
  1962  1963      0   0   0
  1962  1762      0   0   0
  1962   162      1   0   0
  1963  1943      0   0   0
  1963  1983      0   0   0
  1963  1962      0   0   0
  1963  1964      0   0   0
  1963  1763      0   0   0
  1963   163      1   0   0
  1964  1944      0   0   0
  1964  1984      0   0   0
  1964  1963      0   0   0
  1964  1965      0   0   0
  1964  1764      0   0   0
  1964   164      1   0   0
  1965  1945      0   0   0
  1965  1985      0   0   0
  1965  1964      0   0   0
  1965  1966      0   0   0
  1965  1765      0   0   0
  1965   165      1   0   0
  1966  1946      0   0   0
  1966  1986      0   0   0
  1966  1965      0   0   0
  1966  1967      0   0   0
  1966  1766      0   0   0
  1966   166      1   0   0
  1967  1947      0   0   0
  1967  1987      0   0   0
  1967  1966      0   0   0
  1967  1968      0   0   0
  1967  1767      0   0   0
  1967   167      1   0   0
  1968  1948      0   0   0
  1968  1988      0   0   0
  1968  1967      0   0   0
  1968  1969      0   0   0
  1968  1768      0   0   0
  1968   168      1   0   0
  1969  1949      0   0   0
  1969  1989      0   0   0
  1969  1968      0   0   0
  1969  1970      0   0   0
  1969  1769      0   0   0
  1969   169      1   0   0
  1970  1950      0   0   0
  1970  1990      0   0   0
  1970  1969      0   0   0
  1970  1971      0   0   0
  1970  1770      0   0   0
  1970   170      1   0   0
  1971  1951      0   0   0
  1971  1991      0   0   0
  1971  1970      0   0   0
  1971  1972      0   0   0
  1971  1771      0   0   0
  1971   171      1   0   0
  1972  1952      0   0   0
  1972  1992      0   0   0
  1972  1971      0   0   0
  1972  1973      0   0   0
  1972  1772      0   0   0
  1972   172      1   0   0
  1973  1953      0   0   0
  1973  1993      0   0   0
  1973  1972      0   0   0
  1973  1974      0   0   0
  1973  1773      0   0   0
  1973   173      1   0   0
  1974  1954      0   0   0
  1974  1994      0   0   0
  1974  1973      0   0   0
  1974  1975      0   0   0
  1974  1774      0   0   0
  1974   174      1   0   0
  1975  1955      0   0   0
  1975  1995      0   0   0
  1975  1974      0   0   0
  1975  1976      0   0   0
  1975  1775      0   0   0
  1975   175      1   0   0
  1976  1956      0   0   0
  1976  1996      0   0   0
  1976  1975      0   0   0
  1976  1977      0   0   0
  1976  1776      0   0   0
  1976   176      1   0   0
  1977  1957      0   0   0
  1977  1997      0   0   0
  1977  1976      0   0   0
  1977  1978      0   0   0
  1977  1777      0   0   0
  1977   177      1   0   0
  1978  1958      0   0   0
  1978  1998      0   0   0
  1978  1977      0   0   0
  1978  1979      0   0   0
  1978  1778      0   0   0
  1978   178      1   0   0
  1979  1959      0   0   0
  1979  1999      0   0   0
  1979  1978      0   0   0
  1979  1980      0   0   0
  1979  1779      0   0   0
  1979   179      1   0   0
  1980  1960      0   0   0
  1980  2000      0   0   0
  1980  1979      0   0   0
  1980  1961      0   0   1
  1980  1780      0   0   0
  1980   180      1   0   0
  1981  1961      0   0   0
  1981  1801      0   1   0
  1981  1982      0   0   0
  1981  2000      0   0  -1
  1981  1781      0   0   0
  1981   181      1   0   0
  1982  1962      0   0   0
  1982  1802      0   1   0
  1982  1981      0   0   0
  1982  1983      0   0   0
  1982  1782      0   0   0
  1982   182      1   0   0
  1983  1963      0   0   0
  1983  1803      0   1   0
  1983  1982      0   0   0
  1983  1984      0   0   0
  1983  1783      0   0   0
  1983   183      1   0   0
  1984  1964      0   0   0
  1984  1804      0   1   0
  1984  1983      0   0   0
  1984  1985      0   0   0
  1984  1784      0   0   0
  1984   184      1   0   0
  1985  1965      0   0   0
  1985  1805      0   1   0
  1985  1984      0   0   0
  1985  1986      0   0   0
  1985  1785      0   0   0
  1985   185      1   0   0
  1986  1966      0   0   0
  1986  1806      0   1   0
  1986  1985      0   0   0
  1986  1987      0   0   0
  1986  1786      0   0   0
  1986   186      1   0   0
  1987  1967      0   0   0
  1987  1807      0   1   0
  1987  1986      0   0   0
  1987  1988      0   0   0
  1987  1787      0   0   0
  1987   187      1   0   0
  1988  1968      0   0   0
  1988  1808      0   1   0
  1988  1987      0   0   0
  1988  1989      0   0   0
  1988  1788      0   0   0
  1988   188      1   0   0
  1989  1969      0   0   0
  1989  1809      0   1   0
  1989  1988      0   0   0
  1989  1990      0   0   0
  1989  1789      0   0   0
  1989   189      1   0   0
  1990  1970      0   0   0
  1990  1810      0   1   0
  1990  1989      0   0   0
  1990  1991      0   0   0
  1990  1790      0   0   0
  1990   190      1   0   0
  1991  1971      0   0   0
  1991  1811      0   1   0
  1991  1990      0   0   0
  1991  1992      0   0   0
  1991  1791      0   0   0
  1991   191      1   0   0
  1992  1972      0   0   0
  1992  1812      0   1   0
  1992  1991      0   0   0
  1992  1993      0   0   0
  1992  1792      0   0   0
  1992   192      1   0   0
  1993  1973      0   0   0
  1993  1813      0   1   0
  1993  1992      0   0   0
  1993  1994      0   0   0
  1993  1793      0   0   0
  1993   193      1   0   0
  1994  1974      0   0   0
  1994  1814      0   1   0
  1994  1993      0   0   0
  1994  1995      0   0   0
  1994  1794      0   0   0
  1994   194      1   0   0
  1995  1975      0   0   0
  1995  1815      0   1   0
  1995  1994      0   0   0
  1995  1996      0   0   0
  1995  1795      0   0   0
  1995   195      1   0   0
  1996  1976      0   0   0
  1996  1816      0   1   0
  1996  1995      0   0   0
  1996  1997      0   0   0
  1996  1796      0   0   0
  1996   196      1   0   0
  1997  1977      0   0   0
  1997  1817      0   1   0
  1997  1996      0   0   0
  1997  1998      0   0   0
  1997  1797      0   0   0
  1997   197      1   0   0
  1998  1978      0   0   0
  1998  1818      0   1   0
  1998  1997      0   0   0
  1998  1999      0   0   0
  1998  1798      0   0   0
  1998   198      1   0   0
  1999  1979      0   0   0
  1999  1819      0   1   0
  1999  1998      0   0   0
  1999  2000      0   0   0
  1999  1799      0   0   0
  1999   199      1   0   0
  2000  1980      0   0   0
  2000  1820      0   1   0
  2000  1999      0   0   0
  2000  1981      0   0   1
  2000  1800      0   0   0
  2000   200      1   0   0
end nnkpts

begin exclude_bands
   0
end exclude_bands
