
:LABEL1: Calculations in /scratch/wientmp/jtomczak/309473.f1/PbTe_super
:LABEL2: on n110 at Fri Apr 15 19:41:33 CEST 2022
:LABEL3: using WIEN2k_18.2 (Release 17/7/2018) in /home/jtomczak/PRO/wien2k_18.2/
:LABEL4: using the command: run_lapw -ec 0.0001 -cc 0.0005
 Flat Integration
 New Mode for Coulomb Integral
 Consistent 3/8+Simpson combinations
 Extension of core to zero
 LDM version in phi
 Fifth-order quadrature in outwin


            ---------
:ITE073: 73. ITERATION
            ---------

:NATO :   35 INDEPENDENT AND  512 TOTAL ATOMS IN UNITCELL
       SUBSTANCE: PbTe Fm3m a=6.46A                                           

       LATTICE                      = P   
:POT  : POTENTIAL OPTION EX_LDA EC_LDA VX_LDA VC_LDA
:LAT  : LATTICE CONSTANTS= 48.83054 48.83054 48.83054    1.571    1.571    1.571
:VOL  : UNIT CELL VOLUME =  116432.62472
       MODE OF CALCULATION IS       = RELA
       NON-SPINPOLARIZED CALCULATION
:IFFT  : FFT-parameters:  384  384  384 Factor: 2.00
       ATOMNUMBER=  1 Pb1        VCOUL-ZERO =  0.12190E+00
       ATOMNUMBER=  2 Pb2        VCOUL-ZERO =  0.12191E+00
:EFG002:                        EFG         =     0.02905   *10**21  V / m**2
                               V20  TOT/SRF=     0.02516     0.00001
                               V22  TOT/SRF=     0.00000     0.00000
                               V22M TOT/SRF=     0.00000     0.00000
                               V21  TOT/SRF=     0.00000     0.00000
                               V21M TOT/SRF=     0.00000     0.00000

             -0.01453    0.00000    0.00000       -0.01453    0.00000    0.00000
              0.00000   -0.01453    0.00000        0.00000   -0.01453    0.00000
              0.00000    0.00000    0.02905        0.00000    0.00000    0.02905

         MAIN DIRECTIONS OF THE EFG   1.0000  0.0000  0.0000
                                      0.0000  1.0000  0.0000
                                      0.0000  0.0000  1.0000
:ANG002:  ANGLE WITH OLD X-AXIS =         0.0

:ETA002:                         ASYMM. ETA =     0.00000


       ATOMNUMBER=  3 Pb3        VCOUL-ZERO =  0.12204E+00
:EFG003:                        EFG         =     0.11228   *10**21  V / m**2
                               V20  TOT/SRF=     0.09724     0.00014
                               V22  TOT/SRF=     0.00000     0.00000
                               V22M TOT/SRF=     0.00000     0.00000
                               V21  TOT/SRF=     0.00000     0.00000
                               V21M TOT/SRF=     0.00000     0.00000

             -0.05614    0.00000    0.00000       -0.05614    0.00000    0.00000
              0.00000   -0.05614    0.00000        0.00000   -0.05614    0.00000
              0.00000    0.00000    0.11228        0.00000    0.00000    0.11228

         MAIN DIRECTIONS OF THE EFG   1.0000  0.0000  0.0000
                                      0.0000  1.0000  0.0000
                                      0.0000  0.0000  1.0000
:ANG003:  ANGLE WITH OLD X-AXIS =         0.0

:ETA003:                         ASYMM. ETA =     0.00000


       ATOMNUMBER=  4 Pb4        VCOUL-ZERO =  0.12191E+00
:EFG004:                        EFG         =    -0.01581   *10**21  V / m**2
                               V20  TOT/SRF=     0.00911     0.00000
                               V22  TOT/SRF=    -0.01055     0.00000
                               V22M TOT/SRF=     0.00000     0.00000
                               V21  TOT/SRF=     0.00000     0.00000
                               V21M TOT/SRF=     0.00000     0.00000

             -0.01581    0.00000    0.00000       -0.01581    0.00000    0.00000
              0.00000    0.00529    0.00000        0.00000    0.00529    0.00000
              0.00000    0.00000    0.01051        0.00000    0.00000    0.01051

         MAIN DIRECTIONS OF THE EFG   1.0000  0.0000  0.0000
                                      0.0000  1.0000  0.0000
                                      0.0000  0.0000  1.0000
:ANG004:  ANGLE WITH OLD X-AXIS =         0.0

:ETA004:                         ASYMM. ETA =     0.33022


       ATOMNUMBER=  5 Pb5        VCOUL-ZERO =  0.12212E+00
:EFG005:                        EFG         =     0.14486   *10**21  V / m**2
                               V20  TOT/SRF=    -0.01690    -0.00011
                               V22  TOT/SRF=    -0.13510    -0.00020
                               V22M TOT/SRF=     0.00000     0.00000
                               V21  TOT/SRF=     0.00000     0.00000
                               V21M TOT/SRF=     0.00000     0.00000

             -0.12535    0.00000    0.00000       -0.12535    0.00000    0.00000
              0.00000    0.14486    0.00000        0.00000    0.14486    0.00000
              0.00000    0.00000   -0.01952        0.00000    0.00000   -0.01952

         MAIN DIRECTIONS OF THE EFG   1.0000  0.0000  0.0000
                                      0.0000  1.0000  0.0000
                                      0.0000  0.0000  1.0000
:ANG005:  ANGLE WITH OLD X-AXIS =         0.0

:ETA005:                         ASYMM. ETA =     0.73052


       ATOMNUMBER=  6 Pb6        VCOUL-ZERO =  0.12375E+00
:EFG006:                        EFG         =    -2.08728   *10**21  V / m**2
                               V20  TOT/SRF=    -1.80763    -0.00262
                               V22  TOT/SRF=     0.00000     0.00000
                               V22M TOT/SRF=     0.00000     0.00000
                               V21  TOT/SRF=     0.00000     0.00000
                               V21M TOT/SRF=     0.00000     0.00000

              1.04364    0.00000    0.00000        1.04364    0.00000    0.00000
              0.00000    1.04364    0.00000        0.00000    1.04364    0.00000
              0.00000    0.00000   -2.08728        0.00000    0.00000   -2.08728

         MAIN DIRECTIONS OF THE EFG   1.0000  0.0000  0.0000
                                      0.0000  1.0000  0.0000
                                      0.0000  0.0000  1.0000
:ANG006:  ANGLE WITH OLD X-AXIS =         0.0

:ETA006:                         ASYMM. ETA =     0.00000


       ATOMNUMBER=  7 Pb7        VCOUL-ZERO =  0.12189E+00
:EFG007:                        EFG         =     0.00118   *10**21  V / m**2
                               V20  TOT/SRF=     0.00103    -0.00001
                               V22  TOT/SRF=     0.00000     0.00000
                               V22M TOT/SRF=     0.00000     0.00000
                               V21  TOT/SRF=     0.00000     0.00000
                               V21M TOT/SRF=     0.00000     0.00000

             -0.00059    0.00000    0.00000       -0.00059    0.00000    0.00000
              0.00000   -0.00059    0.00000        0.00000   -0.00059    0.00000
              0.00000    0.00000    0.00118        0.00000    0.00000    0.00118

         MAIN DIRECTIONS OF THE EFG   1.0000  0.0000  0.0000
                                      0.0000  1.0000  0.0000
                                      0.0000  0.0000  1.0000
:ANG007:  ANGLE WITH OLD X-AXIS =         0.0

:ETA007:                         ASYMM. ETA =     0.00000


       ATOMNUMBER=  8 Pb8        VCOUL-ZERO =  0.12218E+00
:EFG008:                        EFG         =     0.19059   *10**21  V / m**2
                               V20  TOT/SRF=    -0.07298    -0.00024
                               V22  TOT/SRF=    -0.14845    -0.00022
                               V22M TOT/SRF=     0.00000     0.00000
                               V21  TOT/SRF=     0.00000     0.00000
                               V21M TOT/SRF=     0.00000     0.00000

             -0.10631    0.00000    0.00000       -0.10631    0.00000    0.00000
              0.00000    0.19059    0.00000        0.00000    0.19059    0.00000
              0.00000    0.00000   -0.08427        0.00000    0.00000   -0.08427

         MAIN DIRECTIONS OF THE EFG   1.0000  0.0000  0.0000
                                      0.0000  1.0000  0.0000
                                      0.0000  0.0000  1.0000
:ANG008:  ANGLE WITH OLD X-AXIS =         0.0

:ETA008:                         ASYMM. ETA =     0.11564


       ATOMNUMBER=  9 Pb9        VCOUL-ZERO =  0.12495E+00
:EFG009:                        EFG         =    -4.21435   *10**21  V / m**2
                               V20  TOT/SRF=    -3.64974    -0.00495
                               V22  TOT/SRF=     0.00000     0.00000
                               V22M TOT/SRF=     0.00000     0.00000
                               V21  TOT/SRF=     0.00000     0.00000
                               V21M TOT/SRF=     0.00000     0.00000

              2.10718    0.00000    0.00000        2.10718    0.00000    0.00000
              0.00000    2.10718    0.00000        0.00000    2.10718    0.00000
              0.00000    0.00000   -4.21435        0.00000    0.00000   -4.21435

         MAIN DIRECTIONS OF THE EFG   1.0000  0.0000  0.0000
                                      0.0000  1.0000  0.0000
                                      0.0000  0.0000  1.0000
:ANG009:  ANGLE WITH OLD X-AXIS =         0.0

:ETA009:                         ASYMM. ETA =     0.00000


       ATOMNUMBER= 10 Tl10       VCOUL-ZERO =  0.21559E+00
       ATOMNUMBER= 11 Pb11       VCOUL-ZERO =  0.12199E+00
:EFG011:                        EFG         =    -0.00903   *10**21  V / m**2
                               V20  TOT/SRF=     0.00379     0.00001
                               V22  TOT/SRF=    -0.00685    -0.00002
                               V22M TOT/SRF=     0.00000     0.00000
                               V21  TOT/SRF=     0.00000     0.00000
                               V21M TOT/SRF=     0.00000     0.00000

             -0.00903    0.00000    0.00000       -0.00903    0.00000    0.00000
              0.00000    0.00466    0.00000        0.00000    0.00466    0.00000
              0.00000    0.00000    0.00437        0.00000    0.00000    0.00437

         MAIN DIRECTIONS OF THE EFG   1.0000  0.0000  0.0000
                                      0.0000  1.0000  0.0000
                                      0.0000  0.0000  1.0000
:ANG011:  ANGLE WITH OLD X-AXIS =         0.0

:ETA011:                         ASYMM. ETA =     0.03206


       ATOMNUMBER= 12 Pb12       VCOUL-ZERO =  0.12209E+00
:EFG012:                        EFG         =     0.09183   *10**21  V / m**2
                               V20  TOT/SRF=    -0.05170    -0.00008
                               V22  TOT/SRF=     0.06197     0.00008
                               V22M TOT/SRF=     0.00085     0.00000
                               V21  TOT/SRF=     0.00000     0.00000
                               V21M TOT/SRF=     0.00000     0.00000

              0.09182    0.00085    0.00000        0.09183    0.00000    0.00000
              0.00085   -0.03213    0.00000        0.00000   -0.03213    0.00000
              0.00000    0.00000   -0.05970        0.00000    0.00000   -0.05970

         MAIN DIRECTIONS OF THE EFG   1.0000 -0.0069  0.0000
                                      0.0069  1.0000  0.0000
                                      0.0000  0.0000  1.0000
:ANG012:  ANGLE WITH OLD X-AXIS =         0.4

:ETA012:                         ASYMM. ETA =     0.30017


       ATOMNUMBER= 13 Pb13       VCOUL-ZERO =  0.12230E+00
:EFG013:                        EFG         =    -0.22733   *10**21  V / m**2
                               V20  TOT/SRF=     0.09872     0.00012
                               V22  TOT/SRF=    -0.17034    -0.00016
                               V22M TOT/SRF=     0.00000     0.00000
                               V21  TOT/SRF=     0.00000     0.00000
                               V21M TOT/SRF=     0.00000     0.00000

             -0.22733    0.00000    0.00000       -0.22733    0.00000    0.00000
              0.00000    0.11334    0.00000        0.00000    0.11334    0.00000
              0.00000    0.00000    0.11399        0.00000    0.00000    0.11399

         MAIN DIRECTIONS OF THE EFG   1.0000  0.0000  0.0000
                                      0.0000  1.0000  0.0000
                                      0.0000  0.0000  1.0000
:ANG013:  ANGLE WITH OLD X-AXIS =         0.0

:ETA013:                         ASYMM. ETA =     0.00288


       ATOMNUMBER= 14 Pb14       VCOUL-ZERO =  0.12200E+00
:EFG014:                        EFG         =     0.00969   *10**21  V / m**2
                               V20  TOT/SRF=    -0.00482     0.00001
                               V22  TOT/SRF=     0.00690    -0.00002
                               V22M TOT/SRF=    -0.00009    -0.00001
                               V21  TOT/SRF=     0.00000     0.00000
                               V21M TOT/SRF=     0.00000     0.00000

              0.00969   -0.00009    0.00000        0.00969    0.00000    0.00000
             -0.00009   -0.00412    0.00000        0.00000   -0.00413    0.00000
              0.00000    0.00000   -0.00556        0.00000    0.00000   -0.00556

         MAIN DIRECTIONS OF THE EFG   1.0000  0.0064  0.0000
                                     -0.0064  1.0000  0.0000
                                      0.0000  0.0000  1.0000
:ANG014:  ANGLE WITH OLD X-AXIS =         0.4

:ETA014:                         ASYMM. ETA =     0.14823


       ATOMNUMBER= 15 Pb15       VCOUL-ZERO =  0.12211E+00
:EFG015:                        EFG         =     0.09172   *10**21  V / m**2
                               V20  TOT/SRF=    -0.02653    -0.00006
                               V22  TOT/SRF=     0.07634     0.00009
                               V22M TOT/SRF=     0.00295     0.00000
                               V21  TOT/SRF=    -0.00128    -0.00000
                               V21M TOT/SRF=     0.00303    -0.00001

              0.09165    0.00295   -0.00128        0.09172    0.00000    0.00000
              0.00295   -0.06102    0.00303        0.00000   -0.06138    0.00000
             -0.00128    0.00303   -0.03063        0.00000    0.00000   -0.03034

         MAIN DIRECTIONS OF THE EFG   1.0000 -0.0201  0.0081
                                      0.0191  1.0000  0.0996
                                     -0.0100 -0.0994  1.0000
:ANG015:  ANGLE WITH OLD X-AXIS =         1.2

:ETA015:                         ASYMM. ETA =     0.33843


       ATOMNUMBER= 16 Pb16       VCOUL-ZERO =  0.12221E+00
:EFG016:                        EFG         =    -0.09816   *10**21  V / m**2
                               V20  TOT/SRF=     0.03308     0.00000
                               V22  TOT/SRF=    -0.07063    -0.00003
                               V22M TOT/SRF=     0.03552    -0.00003
                               V21  TOT/SRF=     0.00000     0.00000
                               V21M TOT/SRF=     0.00000     0.00000

             -0.08973    0.03552    0.00000       -0.09816    0.00000    0.00000
              0.03552    0.05154    0.00000        0.00000    0.05997    0.00000
              0.00000    0.00000    0.03819        0.00000    0.00000    0.03819

         MAIN DIRECTIONS OF THE EFG   1.0000  0.2373  0.0000
                                     -0.2373  1.0000  0.0000
                                      0.0000  0.0000  1.0000
:ANG016:  ANGLE WITH OLD X-AXIS =        13.3

:ETA016:                         ASYMM. ETA =     0.22184


       ATOMNUMBER= 17 Pb17       VCOUL-ZERO =  0.12216E+00
:EFG017:                        EFG         =     0.12460   *10**21  V / m**2
                               V20  TOT/SRF=    -0.05424    -0.00009
                               V22  TOT/SRF=     0.09329     0.00013
                               V22M TOT/SRF=     0.00000     0.00000
                               V21  TOT/SRF=     0.00000     0.00000
                               V21M TOT/SRF=     0.00000     0.00000

              0.12460    0.00000    0.00000        0.12460    0.00000    0.00000
              0.00000   -0.06198    0.00000        0.00000   -0.06198    0.00000
              0.00000    0.00000   -0.06263        0.00000    0.00000   -0.06263

         MAIN DIRECTIONS OF THE EFG   1.0000  0.0000  0.0000
                                      0.0000  1.0000  0.0000
                                      0.0000  0.0000  1.0000
:ANG017:  ANGLE WITH OLD X-AXIS =         0.0

:ETA017:                         ASYMM. ETA =     0.00522


       ATOMNUMBER= 18 Pb18       VCOUL-ZERO =  0.12266E+00
:EFG018:                        EFG         =    -0.53048   *10**21  V / m**2
                               V20  TOT/SRF=     0.33798     0.00054
                               V22  TOT/SRF=     0.33534     0.00028
                               V22M TOT/SRF=     0.00176    -0.00003
                               V21  TOT/SRF=     0.00000     0.00000
                               V21M TOT/SRF=     0.00000     0.00000

              0.14021    0.00176    0.00000        0.14021    0.00000    0.00000
              0.00176   -0.53048    0.00000        0.00000   -0.53048    0.00000
              0.00000    0.00000    0.39026        0.00000    0.00000    0.39026

         MAIN DIRECTIONS OF THE EFG   1.0000 -0.0026  0.0000
                                      0.0026  1.0000  0.0000
                                      0.0000  0.0000  1.0000
:ANG018:  ANGLE WITH OLD X-AXIS =         0.2

:ETA018:                         ASYMM. ETA =     0.47137


       ATOMNUMBER= 19 Pb19       VCOUL-ZERO =  0.12263E+00
:EFG019:                        EFG         =     0.37989   *10**21  V / m**2
                               V20  TOT/SRF=    -0.22207    -0.00071
                               V22  TOT/SRF=     0.25168     0.00051
                               V22M TOT/SRF=     0.00000     0.00000
                               V21  TOT/SRF=     0.00000     0.00000
                               V21M TOT/SRF=     0.00000     0.00000

              0.37989    0.00000    0.00000        0.37989    0.00000    0.00000
              0.00000   -0.12347    0.00000        0.00000   -0.12347    0.00000
              0.00000    0.00000   -0.25643        0.00000    0.00000   -0.25643

         MAIN DIRECTIONS OF THE EFG   1.0000  0.0000  0.0000
                                      0.0000  1.0000  0.0000
                                      0.0000  0.0000  1.0000
:ANG019:  ANGLE WITH OLD X-AXIS =         0.0

:ETA019:                         ASYMM. ETA =     0.34999


       ATOMNUMBER= 20 Te20       VCOUL-ZERO =  0.21652E+00
:EFG020:                        EFG         =     0.06582   *10**21  V / m**2
                               V20  TOT/SRF=     0.05700     0.00007
                               V22  TOT/SRF=     0.00000     0.00000
                               V22M TOT/SRF=     0.00000     0.00000
                               V21  TOT/SRF=     0.00000     0.00000
                               V21M TOT/SRF=     0.00000     0.00000

             -0.03291    0.00000    0.00000       -0.03291    0.00000    0.00000
              0.00000   -0.03291    0.00000        0.00000   -0.03291    0.00000
              0.00000    0.00000    0.06582        0.00000    0.00000    0.06582

         MAIN DIRECTIONS OF THE EFG   1.0000  0.0000  0.0000
                                      0.0000  1.0000  0.0000
                                      0.0000  0.0000  1.0000
:ANG020:  ANGLE WITH OLD X-AXIS =         0.0

:ETA020:                         ASYMM. ETA =     0.00000


       ATOMNUMBER= 21 Te21       VCOUL-ZERO =  0.21663E+00
:EFG021:                        EFG         =     0.12172   *10**21  V / m**2
                               V20  TOT/SRF=     0.10541     0.00020
                               V22  TOT/SRF=     0.00000     0.00000
                               V22M TOT/SRF=     0.00000     0.00000
                               V21  TOT/SRF=     0.00000     0.00000
                               V21M TOT/SRF=     0.00000     0.00000

             -0.06086    0.00000    0.00000       -0.06086    0.00000    0.00000
              0.00000   -0.06086    0.00000        0.00000   -0.06086    0.00000
              0.00000    0.00000    0.12172        0.00000    0.00000    0.12172

         MAIN DIRECTIONS OF THE EFG   1.0000  0.0000  0.0000
                                      0.0000  1.0000  0.0000
                                      0.0000  0.0000  1.0000
:ANG021:  ANGLE WITH OLD X-AXIS =         0.0

:ETA021:                         ASYMM. ETA =     0.00000


       ATOMNUMBER= 22 Te22       VCOUL-ZERO =  0.21655E+00
:EFG022:                        EFG         =     0.06149   *10**21  V / m**2
                               V20  TOT/SRF=    -0.03824    -0.00005
                               V22  TOT/SRF=     0.03935     0.00004
                               V22M TOT/SRF=    -0.00225    -0.00000
                               V21  TOT/SRF=     0.00000     0.00000
                               V21M TOT/SRF=     0.00000     0.00000

              0.06143   -0.00225    0.00000        0.06149    0.00000    0.00000
             -0.00225   -0.01727    0.00000        0.00000   -0.01734    0.00000
              0.00000    0.00000   -0.04416        0.00000    0.00000   -0.04416

         MAIN DIRECTIONS OF THE EFG   1.0000  0.0286  0.0000
                                     -0.0286  1.0000  0.0000
                                      0.0000  0.0000  1.0000
:ANG022:  ANGLE WITH OLD X-AXIS =         1.6

:ETA022:                         ASYMM. ETA =     0.43618


       ATOMNUMBER= 23 Te23       VCOUL-ZERO =  0.21665E+00
:EFG023:                        EFG         =     0.13222   *10**21  V / m**2
                               V20  TOT/SRF=    -0.06843    -0.00015
                               V22  TOT/SRF=     0.09262     0.00018
                               V22M TOT/SRF=     0.00404     0.00000
                               V21  TOT/SRF=     0.00000     0.00000
                               V21M TOT/SRF=     0.00000     0.00000

              0.13213    0.00404    0.00000        0.13222    0.00000    0.00000
              0.00404   -0.05311    0.00000        0.00000   -0.05320    0.00000
              0.00000    0.00000   -0.07902        0.00000    0.00000   -0.07902

         MAIN DIRECTIONS OF THE EFG   1.0000 -0.0218  0.0000
                                      0.0218  1.0000  0.0000
                                      0.0000  0.0000  1.0000
:ANG023:  ANGLE WITH OLD X-AXIS =         1.2

:ETA023:                         ASYMM. ETA =     0.19526


       ATOMNUMBER= 24 Te24       VCOUL-ZERO =  0.21666E+00
:EFG024:                        EFG         =    -0.03513   *10**21  V / m**2
                               V20  TOT/SRF=     0.00880    -0.00002
                               V22  TOT/SRF=    -0.03005    -0.00012
                               V22M TOT/SRF=     0.00000     0.00000
                               V21  TOT/SRF=     0.00000     0.00000
                               V21M TOT/SRF=     0.00000     0.00000

             -0.03513    0.00000    0.00000       -0.03513    0.00000    0.00000
              0.00000    0.02497    0.00000        0.00000    0.02497    0.00000
              0.00000    0.00000    0.01016        0.00000    0.00000    0.01016

         MAIN DIRECTIONS OF THE EFG   1.0000  0.0000  0.0000
                                      0.0000  1.0000  0.0000
                                      0.0000  0.0000  1.0000
:ANG024:  ANGLE WITH OLD X-AXIS =         0.0

:ETA024:                         ASYMM. ETA =     0.42133


       ATOMNUMBER= 25 Te25       VCOUL-ZERO =  0.21708E+00
:EFG025:                        EFG         =    -0.10382   *10**21  V / m**2
                               V20  TOT/SRF=     0.03294     0.00018
                               V22  TOT/SRF=    -0.08480    -0.00056
                               V22M TOT/SRF=     0.00000     0.00000
                               V21  TOT/SRF=     0.00000     0.00000
                               V21M TOT/SRF=     0.00000     0.00000

             -0.10382    0.00000    0.00000       -0.10382    0.00000    0.00000
              0.00000    0.06578    0.00000        0.00000    0.06578    0.00000
              0.00000    0.00000    0.03804        0.00000    0.00000    0.03804

         MAIN DIRECTIONS OF THE EFG   1.0000  0.0000  0.0000
                                      0.0000  1.0000  0.0000
                                      0.0000  0.0000  1.0000
:ANG025:  ANGLE WITH OLD X-AXIS =         0.0

:ETA025:                         ASYMM. ETA =     0.26722


       ATOMNUMBER= 26 Te26       VCOUL-ZERO =  0.21654E+00
:EFG026:                        EFG         =     0.07716   *10**21  V / m**2
                               V20  TOT/SRF=    -0.03853    -0.00005
                               V22  TOT/SRF=     0.05465     0.00005
                               V22M TOT/SRF=     0.00533     0.00001
                               V21  TOT/SRF=     0.00000     0.00000
                               V21M TOT/SRF=     0.00000     0.00000

              0.07690    0.00533    0.00000        0.07716    0.00000    0.00000
              0.00533   -0.03241    0.00000        0.00000   -0.03267    0.00000
              0.00000    0.00000   -0.04449        0.00000    0.00000   -0.04449

         MAIN DIRECTIONS OF THE EFG   1.0000 -0.0487  0.0000
                                      0.0487  1.0000  0.0000
                                      0.0000  0.0000  1.0000
:ANG026:  ANGLE WITH OLD X-AXIS =         2.8

:ETA026:                         ASYMM. ETA =     0.15326


       ATOMNUMBER= 27 Te27       VCOUL-ZERO =  0.21664E+00
:EFG027:                        EFG         =     0.15940   *10**21  V / m**2
                               V20  TOT/SRF=    -0.08422    -0.00021
                               V22  TOT/SRF=     0.09951     0.00021
                               V22M TOT/SRF=     0.04868     0.00010
                               V21  TOT/SRF=     0.00000     0.00000
                               V21M TOT/SRF=     0.00000     0.00000

              0.14813    0.04868    0.00000        0.15940    0.00000    0.00000
              0.04868   -0.05089    0.00000        0.00000   -0.06215    0.00000
              0.00000    0.00000   -0.09725        0.00000    0.00000   -0.09725

         MAIN DIRECTIONS OF THE EFG   1.0000 -0.2315  0.0000
                                      0.2315  1.0000  0.0000
                                      0.0000  0.0000  1.0000
:ANG027:  ANGLE WITH OLD X-AXIS =        13.0

:ETA027:                         ASYMM. ETA =     0.22015


       ATOMNUMBER= 28 Te28       VCOUL-ZERO =  0.21677E+00
:EFG028:                        EFG         =    -0.07348   *10**21  V / m**2
                               V20  TOT/SRF=     0.03378     0.00022
                               V22  TOT/SRF=    -0.05055    -0.00006
                               V22M TOT/SRF=     0.01894     0.00007
                               V21  TOT/SRF=     0.00000     0.00000
                               V21M TOT/SRF=     0.00000     0.00000

             -0.07005    0.01894    0.00000       -0.07348    0.00000    0.00000
              0.01894    0.03104    0.00000        0.00000    0.03448    0.00000
              0.00000    0.00000    0.03900        0.00000    0.00000    0.03900

         MAIN DIRECTIONS OF THE EFG   1.0000  0.1812  0.0000
                                     -0.1812  1.0000  0.0000
                                      0.0000  0.0000  1.0000
:ANG028:  ANGLE WITH OLD X-AXIS =        10.3

:ETA028:                         ASYMM. ETA =     0.06158


       ATOMNUMBER= 29 Te29       VCOUL-ZERO =  0.21721E+00
:EFG029:                        EFG         =    -0.24406   *10**21  V / m**2
                               V20  TOT/SRF=     0.15049     0.00084
                               V22  TOT/SRF=    -0.11786    -0.00076
                               V22M TOT/SRF=     0.10398     0.00061
                               V21  TOT/SRF=     0.00000     0.00000
                               V21M TOT/SRF=     0.00000     0.00000

             -0.20475    0.10398    0.00000       -0.24406    0.00000    0.00000
              0.10398    0.03098    0.00000        0.00000    0.07029    0.00000
              0.00000    0.00000    0.17377        0.00000    0.00000    0.17377

         MAIN DIRECTIONS OF THE EFG   1.0000  0.3781  0.0000
                                     -0.3781  1.0000  0.0000
                                      0.0000  0.0000  1.0000
:ANG029:  ANGLE WITH OLD X-AXIS =        20.7

:ETA029:                         ASYMM. ETA =     0.42402


       ATOMNUMBER= 30 Te30       VCOUL-ZERO =  0.21869E+00
:EFG030:                        EFG         =    -0.98576   *10**21  V / m**2
                               V20  TOT/SRF=    -0.85369    -0.00356
                               V22  TOT/SRF=     0.00000     0.00000
                               V22M TOT/SRF=     0.00000     0.00000
                               V21  TOT/SRF=     0.00000     0.00000
                               V21M TOT/SRF=     0.00000     0.00000

              0.49288    0.00000    0.00000        0.49288    0.00000    0.00000
              0.00000    0.49288    0.00000        0.00000    0.49288    0.00000
              0.00000    0.00000   -0.98576        0.00000    0.00000   -0.98576

         MAIN DIRECTIONS OF THE EFG   1.0000  0.0000  0.0000
                                      0.0000  1.0000  0.0000
                                      0.0000  0.0000  1.0000
:ANG030:  ANGLE WITH OLD X-AXIS =         0.0

:ETA030:                         ASYMM. ETA =     0.00000


       ATOMNUMBER= 31 Te31       VCOUL-ZERO =  0.21950E+00
:EFG031:                        EFG         =    -1.12428   *10**21  V / m**2
                               V20  TOT/SRF=    -0.97365    -0.00904
                               V22  TOT/SRF=     0.00000     0.00000
                               V22M TOT/SRF=     0.00000     0.00000
                               V21  TOT/SRF=     0.00000     0.00000
                               V21M TOT/SRF=     0.00000     0.00000

              0.56214    0.00000    0.00000        0.56214    0.00000    0.00000
              0.00000    0.56214    0.00000        0.00000    0.56214    0.00000
              0.00000    0.00000   -1.12428        0.00000    0.00000   -1.12428

         MAIN DIRECTIONS OF THE EFG   1.0000  0.0000  0.0000
                                      0.0000  1.0000  0.0000
                                      0.0000  0.0000  1.0000
:ANG031:  ANGLE WITH OLD X-AXIS =         0.0

:ETA031:                         ASYMM. ETA =     0.00000


       ATOMNUMBER= 32 Te32       VCOUL-ZERO =  0.21658E+00
:EFG032:                        EFG         =     0.00341   *10**21  V / m**2
                               V20  TOT/SRF=     0.00295     0.00001
                               V22  TOT/SRF=     0.00000     0.00000
                               V22M TOT/SRF=     0.00000     0.00000
                               V21  TOT/SRF=     0.00000     0.00000
                               V21M TOT/SRF=     0.00000     0.00000

             -0.00171    0.00000    0.00000       -0.00171    0.00000    0.00000
              0.00000   -0.00171    0.00000        0.00000   -0.00171    0.00000
              0.00000    0.00000    0.00341        0.00000    0.00000    0.00341

         MAIN DIRECTIONS OF THE EFG   1.0000  0.0000  0.0000
                                      0.0000  1.0000  0.0000
                                      0.0000  0.0000  1.0000
:ANG032:  ANGLE WITH OLD X-AXIS =         0.0

:ETA032:                         ASYMM. ETA =     0.00000


       ATOMNUMBER= 33 Te33       VCOUL-ZERO =  0.21670E+00
:EFG033:                        EFG         =     0.05622   *10**21  V / m**2
                               V20  TOT/SRF=    -0.03089    -0.00008
                               V22  TOT/SRF=     0.03778     0.00011
                               V22M TOT/SRF=     0.00678     0.00001
                               V21  TOT/SRF=     0.00000     0.00000
                               V21M TOT/SRF=     0.00000     0.00000

              0.05562    0.00678    0.00000        0.05622    0.00000    0.00000
              0.00678   -0.01995    0.00000        0.00000   -0.02055    0.00000
              0.00000    0.00000   -0.03567        0.00000    0.00000   -0.03567

         MAIN DIRECTIONS OF THE EFG   1.0000 -0.0890  0.0000
                                      0.0890  1.0000  0.0000
                                      0.0000  0.0000  1.0000
:ANG033:  ANGLE WITH OLD X-AXIS =         5.1

:ETA033:                         ASYMM. ETA =     0.26900


       ATOMNUMBER= 34 Te34       VCOUL-ZERO =  0.21685E+00
:EFG034:                        EFG         =    -0.17522   *10**21  V / m**2
                               V20  TOT/SRF=     0.01570     0.00007
                               V22  TOT/SRF=    -0.15537    -0.00036
                               V22M TOT/SRF=     0.05890     0.00016
                               V21  TOT/SRF=     0.00000     0.00000
                               V21M TOT/SRF=     0.00000     0.00000

             -0.16443    0.05890    0.00000       -0.17522    0.00000    0.00000
              0.05890    0.14630    0.00000        0.00000    0.15709    0.00000
              0.00000    0.00000    0.01813        0.00000    0.00000    0.01813

         MAIN DIRECTIONS OF THE EFG   1.0000  0.1832  0.0000
                                     -0.1832  1.0000  0.0000
                                      0.0000  0.0000  1.0000
:ANG034:  ANGLE WITH OLD X-AXIS =        10.4

:ETA034:                         ASYMM. ETA =     0.79303


       ATOMNUMBER= 35 Te35       VCOUL-ZERO =  0.21655E+00
:EFG035:                        EFG         =     0.44696   *10**21  V / m**2
                               V20  TOT/SRF=     0.38708     0.00111
                               V22  TOT/SRF=     0.00000     0.00000
                               V22M TOT/SRF=     0.00000     0.00000
                               V21  TOT/SRF=     0.00000     0.00000
                               V21M TOT/SRF=     0.00000     0.00000

             -0.22348    0.00000    0.00000       -0.22348    0.00000    0.00000
              0.00000   -0.22348    0.00000        0.00000   -0.22348    0.00000
              0.00000    0.00000    0.44696        0.00000    0.00000    0.44696

         MAIN DIRECTIONS OF THE EFG   1.0000  0.0000  0.0000
                                      0.0000  1.0000  0.0000
                                      0.0000  0.0000  1.0000
:ANG035:  ANGLE WITH OLD X-AXIS =         0.0

:ETA035:                         ASYMM. ETA =     0.00000


     HELLMANN-FEYNMAN-FORCE IN mRy/a.u. = |F|  Fx       Fy             Fz
:FHF001:   1.ATOM      0.000000000000      0.000000000000      0.000000000000      0.000000000000

     HELLMANN-FEYNMAN-FORCE IN mRy/a.u. = |F|  Fx       Fy             Fz
:FHF002:   2.ATOM      1.066024619738      0.000000000000      0.000000000000     -1.066024619738

     HELLMANN-FEYNMAN-FORCE IN mRy/a.u. = |F|  Fx       Fy             Fz
:FHF003:   3.ATOM      0.000000000000      0.000000000000      0.000000000000      0.000000000000

     HELLMANN-FEYNMAN-FORCE IN mRy/a.u. = |F|  Fx       Fy             Fz
:FHF004:   4.ATOM      0.286695586354      0.000000000000      0.000000000000     -0.286695586354

     HELLMANN-FEYNMAN-FORCE IN mRy/a.u. = |F|  Fx       Fy             Fz
:FHF005:   5.ATOM      2.406409220892      0.000000000000      0.000000000000     -2.406409220892

     HELLMANN-FEYNMAN-FORCE IN mRy/a.u. = |F|  Fx       Fy             Fz
:FHF006:   6.ATOM      0.000000000000      0.000000000000      0.000000000000      0.000000000000

     HELLMANN-FEYNMAN-FORCE IN mRy/a.u. = |F|  Fx       Fy             Fz
:FHF007:   7.ATOM      2.302144125751      0.000000000000      0.000000000000     -2.302144125751

     HELLMANN-FEYNMAN-FORCE IN mRy/a.u. = |F|  Fx       Fy             Fz
:FHF008:   8.ATOM      9.010307028146      0.000000000000      0.000000000000     -9.010307028146

     HELLMANN-FEYNMAN-FORCE IN mRy/a.u. = |F|  Fx       Fy             Fz
:FHF009:   9.ATOM    148.917519616324      0.000000000000      0.000000000000   -148.917519616324

     HELLMANN-FEYNMAN-FORCE IN mRy/a.u. = |F|  Fx       Fy             Fz
:FHF010:  10.ATOM      0.000000000000      0.000000000000      0.000000000000      0.000000000000

     HELLMANN-FEYNMAN-FORCE IN mRy/a.u. = |F|  Fx       Fy             Fz
:FHF011:  11.ATOM      1.252413293517      0.000000000000      0.000000000000     -1.252413293517

     HELLMANN-FEYNMAN-FORCE IN mRy/a.u. = |F|  Fx       Fy             Fz
:FHF012:  12.ATOM      1.702758969351     -1.081378330307     -1.315298070570      0.000000000000

     HELLMANN-FEYNMAN-FORCE IN mRy/a.u. = |F|  Fx       Fy             Fz
:FHF013:  13.ATOM      1.220484901991      0.000000000000      0.000000000000     -1.220484901991

     HELLMANN-FEYNMAN-FORCE IN mRy/a.u. = |F|  Fx       Fy             Fz
:FHF014:  14.ATOM      1.846013184620      1.453087176475      1.138552737187      0.000000000000

     HELLMANN-FEYNMAN-FORCE IN mRy/a.u. = |F|  Fx       Fy             Fz
:FHF015:  15.ATOM      3.647028099353     -2.489654174385     -1.999252726766     -1.762221491172

     HELLMANN-FEYNMAN-FORCE IN mRy/a.u. = |F|  Fx       Fy             Fz
:FHF016:  16.ATOM      7.112000113588      5.359272273615      4.675333818343      0.000000000000

     HELLMANN-FEYNMAN-FORCE IN mRy/a.u. = |F|  Fx       Fy             Fz
:FHF017:  17.ATOM      4.558945635525      0.000000000000      0.000000000000     -4.558945635525

     HELLMANN-FEYNMAN-FORCE IN mRy/a.u. = |F|  Fx       Fy             Fz
:FHF018:  18.ATOM     17.709359064530     -9.898369621477    -14.684811109206      0.000000000000

     HELLMANN-FEYNMAN-FORCE IN mRy/a.u. = |F|  Fx       Fy             Fz
:FHF019:  19.ATOM     45.220361966345      0.000000000000      0.000000000000    -45.220361966345

     HELLMANN-FEYNMAN-FORCE IN mRy/a.u. = |F|  Fx       Fy             Fz
:FHF020:  20.ATOM      0.324341008029      0.000000000000      0.000000000000      0.324341008029

     HELLMANN-FEYNMAN-FORCE IN mRy/a.u. = |F|  Fx       Fy             Fz
:FHF021:  21.ATOM      0.207083067575      0.000000000000      0.000000000000     -0.207083067575

     HELLMANN-FEYNMAN-FORCE IN mRy/a.u. = |F|  Fx       Fy             Fz
:FHF022:  22.ATOM      0.168681360462      0.142827941744     -0.089741742932      0.000000000000

     HELLMANN-FEYNMAN-FORCE IN mRy/a.u. = |F|  Fx       Fy             Fz
:FHF023:  23.ATOM      0.329681424359      0.250178696138     -0.214710180396      0.000000000000

     HELLMANN-FEYNMAN-FORCE IN mRy/a.u. = |F|  Fx       Fy             Fz
:FHF024:  24.ATOM      0.855358243837      0.000000000000      0.000000000000      0.855358243837

     HELLMANN-FEYNMAN-FORCE IN mRy/a.u. = |F|  Fx       Fy             Fz
:FHF025:  25.ATOM      4.050464344781      0.000000000000      0.000000000000      4.050464344781

     HELLMANN-FEYNMAN-FORCE IN mRy/a.u. = |F|  Fx       Fy             Fz
:FHF026:  26.ATOM      0.834687921898     -0.396215943940      0.734654240259      0.000000000000

     HELLMANN-FEYNMAN-FORCE IN mRy/a.u. = |F|  Fx       Fy             Fz
:FHF027:  27.ATOM      0.737347867291     -0.691024588569     -0.257229266203      0.000000000000

     HELLMANN-FEYNMAN-FORCE IN mRy/a.u. = |F|  Fx       Fy             Fz
:FHF028:  28.ATOM      3.907251878632      3.787221708918      0.961024958350      0.000000000000

     HELLMANN-FEYNMAN-FORCE IN mRy/a.u. = |F|  Fx       Fy             Fz
:FHF029:  29.ATOM      6.714691999520      6.692739079975      0.542523967947      0.000000000000

     HELLMANN-FEYNMAN-FORCE IN mRy/a.u. = |F|  Fx       Fy             Fz
:FHF030:  30.ATOM     28.158912514209      0.000000000000      0.000000000000     28.158912514209

     HELLMANN-FEYNMAN-FORCE IN mRy/a.u. = |F|  Fx       Fy             Fz
:FHF031:  31.ATOM    151.979787321918      0.000000000000      0.000000000000    151.979787321918

     HELLMANN-FEYNMAN-FORCE IN mRy/a.u. = |F|  Fx       Fy             Fz
:FHF032:  32.ATOM      0.023576359179      0.000000000000      0.000000000000     -0.023576359179

     HELLMANN-FEYNMAN-FORCE IN mRy/a.u. = |F|  Fx       Fy             Fz
:FHF033:  33.ATOM      0.571062029976      0.440617665286      0.363273884442      0.000000000000

     HELLMANN-FEYNMAN-FORCE IN mRy/a.u. = |F|  Fx       Fy             Fz
:FHF034:  34.ATOM      2.087404846679      1.005799090833      1.829105569074      0.000000000000

     HELLMANN-FEYNMAN-FORCE IN mRy/a.u. = |F|  Fx       Fy             Fz
:FHF035:  35.ATOM      7.947300796353      0.000000000000      0.000000000000     -7.947300796353

:FIT001: LUSE= 13 SIGMA OF V-XC FIT FOR ATOM  1  0.4522415E-03
:FIT001: LUSE= 13 SIGMA OF V-XC FIT FOR ATOM  1  0.4522415E-03
:FIT002: LUSE= 13 SIGMA OF V-XC FIT FOR ATOM  2  0.4519228E-03
:FIT002: LUSE= 13 SIGMA OF V-XC FIT FOR ATOM  2  0.4519228E-03
:FIT003: LUSE= 13 SIGMA OF V-XC FIT FOR ATOM  3  0.4521951E-03
:FIT003: LUSE= 13 SIGMA OF V-XC FIT FOR ATOM  3  0.4521951E-03
:FIT004: LUSE= 13 SIGMA OF V-XC FIT FOR ATOM  4  0.4518547E-03
:FIT004: LUSE= 13 SIGMA OF V-XC FIT FOR ATOM  4  0.4518547E-03
:FIT005: LUSE= 13 SIGMA OF V-XC FIT FOR ATOM  5  0.4521765E-03
:FIT005: LUSE= 13 SIGMA OF V-XC FIT FOR ATOM  5  0.4521765E-03
:FIT006: LUSE= 13 SIGMA OF V-XC FIT FOR ATOM  6  0.4584873E-03
:FIT006: LUSE= 13 SIGMA OF V-XC FIT FOR ATOM  6  0.4584873E-03
:FIT007: LUSE= 13 SIGMA OF V-XC FIT FOR ATOM  7  0.4520475E-03
:FIT007: LUSE= 13 SIGMA OF V-XC FIT FOR ATOM  7  0.4520475E-03
:FIT008: LUSE= 13 SIGMA OF V-XC FIT FOR ATOM  8  0.4523918E-03
:FIT008: LUSE= 13 SIGMA OF V-XC FIT FOR ATOM  8  0.4523918E-03
:FIT009: LUSE= 13 SIGMA OF V-XC FIT FOR ATOM  9  0.4679555E-03
:FIT009: LUSE= 13 SIGMA OF V-XC FIT FOR ATOM  9  0.4679555E-03
:FIT010: LUSE= 13 SIGMA OF V-XC FIT FOR ATOM 10  0.3658706E-03
:FIT010: LUSE= 13 SIGMA OF V-XC FIT FOR ATOM 10  0.3658706E-03
:FIT011: LUSE= 13 SIGMA OF V-XC FIT FOR ATOM 11  0.4518642E-03
:FIT011: LUSE= 13 SIGMA OF V-XC FIT FOR ATOM 11  0.4518642E-03
:FIT012: LUSE= 13 SIGMA OF V-XC FIT FOR ATOM 12  0.4517969E-03
:FIT012: LUSE= 13 SIGMA OF V-XC FIT FOR ATOM 12  0.4517969E-03
:FIT013: LUSE= 13 SIGMA OF V-XC FIT FOR ATOM 13  0.4519196E-03
:FIT013: LUSE= 13 SIGMA OF V-XC FIT FOR ATOM 13  0.4519196E-03
:FIT014: LUSE= 13 SIGMA OF V-XC FIT FOR ATOM 14  0.4517632E-03
:FIT014: LUSE= 13 SIGMA OF V-XC FIT FOR ATOM 14  0.4517632E-03
:FIT015: LUSE= 13 SIGMA OF V-XC FIT FOR ATOM 15  0.4517870E-03
:FIT015: LUSE= 13 SIGMA OF V-XC FIT FOR ATOM 15  0.4517870E-03
:FIT016: LUSE= 13 SIGMA OF V-XC FIT FOR ATOM 16  0.4517426E-03
:FIT016: LUSE= 13 SIGMA OF V-XC FIT FOR ATOM 16  0.4517426E-03
:FIT017: LUSE= 13 SIGMA OF V-XC FIT FOR ATOM 17  0.4520408E-03
:FIT017: LUSE= 13 SIGMA OF V-XC FIT FOR ATOM 17  0.4520408E-03
:FIT018: LUSE= 13 SIGMA OF V-XC FIT FOR ATOM 18  0.4527788E-03
:FIT018: LUSE= 13 SIGMA OF V-XC FIT FOR ATOM 18  0.4527788E-03
:FIT019: LUSE= 13 SIGMA OF V-XC FIT FOR ATOM 19  0.4506118E-03
:FIT019: LUSE= 13 SIGMA OF V-XC FIT FOR ATOM 19  0.4506118E-03
:FIT020: LUSE= 13 SIGMA OF V-XC FIT FOR ATOM 20  0.1449358E-03
:FIT020: LUSE= 13 SIGMA OF V-XC FIT FOR ATOM 20  0.1449358E-03
:FIT021: LUSE= 13 SIGMA OF V-XC FIT FOR ATOM 21  0.1449069E-03
:FIT021: LUSE= 13 SIGMA OF V-XC FIT FOR ATOM 21  0.1449069E-03
:FIT022: LUSE= 13 SIGMA OF V-XC FIT FOR ATOM 22  0.1449027E-03
:FIT022: LUSE= 13 SIGMA OF V-XC FIT FOR ATOM 22  0.1449027E-03
:FIT023: LUSE= 13 SIGMA OF V-XC FIT FOR ATOM 23  0.1449557E-03
:FIT023: LUSE= 13 SIGMA OF V-XC FIT FOR ATOM 23  0.1449557E-03
:FIT024: LUSE= 13 SIGMA OF V-XC FIT FOR ATOM 24  0.1448725E-03
:FIT024: LUSE= 13 SIGMA OF V-XC FIT FOR ATOM 24  0.1448725E-03
:FIT025: LUSE= 13 SIGMA OF V-XC FIT FOR ATOM 25  0.1448767E-03
:FIT025: LUSE= 13 SIGMA OF V-XC FIT FOR ATOM 25  0.1448767E-03
:FIT026: LUSE= 13 SIGMA OF V-XC FIT FOR ATOM 26  0.1449440E-03
:FIT026: LUSE= 13 SIGMA OF V-XC FIT FOR ATOM 26  0.1449440E-03
:FIT027: LUSE= 13 SIGMA OF V-XC FIT FOR ATOM 27  0.1449395E-03
:FIT027: LUSE= 13 SIGMA OF V-XC FIT FOR ATOM 27  0.1449395E-03
:FIT028: LUSE= 13 SIGMA OF V-XC FIT FOR ATOM 28  0.1448068E-03
:FIT028: LUSE= 13 SIGMA OF V-XC FIT FOR ATOM 28  0.1448068E-03
:FIT029: LUSE= 13 SIGMA OF V-XC FIT FOR ATOM 29  0.1451218E-03
:FIT029: LUSE= 13 SIGMA OF V-XC FIT FOR ATOM 29  0.1451218E-03
:FIT030: LUSE= 13 SIGMA OF V-XC FIT FOR ATOM 30  0.1436900E-03
:FIT030: LUSE= 13 SIGMA OF V-XC FIT FOR ATOM 30  0.1436900E-03
:FIT031: LUSE= 13 SIGMA OF V-XC FIT FOR ATOM 31  0.1612514E-03
:FIT031: LUSE= 13 SIGMA OF V-XC FIT FOR ATOM 31  0.1612514E-03
:FIT032: LUSE= 13 SIGMA OF V-XC FIT FOR ATOM 32  0.1448573E-03
:FIT032: LUSE= 13 SIGMA OF V-XC FIT FOR ATOM 32  0.1448573E-03
:FIT033: LUSE= 13 SIGMA OF V-XC FIT FOR ATOM 33  0.1448305E-03
:FIT033: LUSE= 13 SIGMA OF V-XC FIT FOR ATOM 33  0.1448305E-03
:FIT034: LUSE= 13 SIGMA OF V-XC FIT FOR ATOM 34  0.1450626E-03
:FIT034: LUSE= 13 SIGMA OF V-XC FIT FOR ATOM 34  0.1450626E-03
:FIT035: LUSE= 13 SIGMA OF V-XC FIT FOR ATOM 35  0.1456304E-03
:FIT035: LUSE= 13 SIGMA OF V-XC FIT FOR ATOM 35  0.1456304E-03
:DEN  : DENSITY INTEGRAL  =      -5448958.77466219   (Ry)
       ELS_POTENTIAL_AT Z=0 and Z=0.5:   0.00000   0.00000
       ELS_POTENTIAL_AT Y=0 and Y=0.5:   0.00000   0.00000
:VZERO:v0,v0c,v0x  -0.63510   0.00000  -0.63510 v5,v5c,v5x  -0.63510   0.00000  -0.63510
:VZERY:v0,v0c,v0x  -0.63510   0.00000  -0.63510 v5,v5c,v5x  -0.63510   0.00000  -0.63510
:VZERX:v0,v0c,v0x  -3.62578  -2.66381  -0.96197 v5,v5c,v5x  -3.61230  -2.65140  -0.96090
:LMAX-WF:   10   Non-Spherical LMAX:   4

          ATOMIC SPHERE DEPENDENT PARAMETERS FOR ATOM  Pb1       
:e__0001: OVERALL ENERGY PARAMETER IS    0.1033
          OVERALL BASIS SET ON ATOM IS LAPW
:E2_0001: E( 2)=    0.5033
             APW+lo
:E2_0001: E( 2)=   -0.9191   E(BOTTOM)=   -1.161   E(TOP)=   -0.677  2  3   124
             LOCAL ORBITAL
:E0_0001: E( 0)=    0.5033
             APW+lo
:E0_0001: E( 0)=   -0.6100   E(BOTTOM)=   -1.052   E(TOP)= -200.000  5 -1   153
             LOCAL ORBITAL
:E1_0001: E( 1)=    0.1033
             APW+lo

          ATOMIC SPHERE DEPENDENT PARAMETERS FOR ATOM  Pb2       
:e__0002: OVERALL ENERGY PARAMETER IS    0.1033
          OVERALL BASIS SET ON ATOM IS LAPW
:E2_0002: E( 2)=    0.5033
             APW+lo
:E2_0002: E( 2)=   -0.9190   E(BOTTOM)=   -1.161   E(TOP)=   -0.677  2  3   123
             LOCAL ORBITAL
:E0_0002: E( 0)=    0.5033
             APW+lo
:E0_0002: E( 0)=   -0.6100   E(BOTTOM)=   -1.052   E(TOP)= -200.000  5 -1   153
             LOCAL ORBITAL
:E1_0002: E( 1)=    0.1033
             APW+lo

          ATOMIC SPHERE DEPENDENT PARAMETERS FOR ATOM  Pb3       
:e__0003: OVERALL ENERGY PARAMETER IS    0.1033
          OVERALL BASIS SET ON ATOM IS LAPW
:E2_0003: E( 2)=    0.5033
             APW+lo
:E2_0003: E( 2)=   -0.9189   E(BOTTOM)=   -1.161   E(TOP)=   -0.677  2  3   127
             LOCAL ORBITAL
:E0_0003: E( 0)=    0.5033
             APW+lo
:E0_0003: E( 0)=   -0.6100   E(BOTTOM)=   -1.051   E(TOP)= -200.000  5 -1   154
             LOCAL ORBITAL
:E1_0003: E( 1)=    0.1033
             APW+lo

          ATOMIC SPHERE DEPENDENT PARAMETERS FOR ATOM  Pb4       
:e__0004: OVERALL ENERGY PARAMETER IS    0.1033
          OVERALL BASIS SET ON ATOM IS LAPW
:E2_0004: E( 2)=    0.5033
             APW+lo
:E2_0004: E( 2)=   -0.9191   E(BOTTOM)=   -1.161   E(TOP)=   -0.677  2  3   125
             LOCAL ORBITAL
:E0_0004: E( 0)=    0.5033
             APW+lo
:E0_0004: E( 0)=   -0.6100   E(BOTTOM)=   -1.052   E(TOP)= -200.000  5 -1   156
             LOCAL ORBITAL
:E1_0004: E( 1)=    0.1033
             APW+lo

          ATOMIC SPHERE DEPENDENT PARAMETERS FOR ATOM  Pb5       
:e__0005: OVERALL ENERGY PARAMETER IS    0.1033
          OVERALL BASIS SET ON ATOM IS LAPW
:E2_0005: E( 2)=    0.5033
             APW+lo
:E2_0005: E( 2)=   -0.9189   E(BOTTOM)=   -1.161   E(TOP)=   -0.677  2  3   128
             LOCAL ORBITAL
:E0_0005: E( 0)=    0.5033
             APW+lo
:E0_0005: E( 0)=   -0.6100   E(BOTTOM)=   -1.051   E(TOP)= -200.000  5 -1   156
             LOCAL ORBITAL
:E1_0005: E( 1)=    0.1033
             APW+lo

          ATOMIC SPHERE DEPENDENT PARAMETERS FOR ATOM  Pb6       
:e__0006: OVERALL ENERGY PARAMETER IS    0.1033
          OVERALL BASIS SET ON ATOM IS LAPW
:E2_0006: E( 2)=    0.5033
             APW+lo
:E2_0006: E( 2)=   -0.9172   E(BOTTOM)=   -1.159   E(TOP)=   -0.675  2  3   120
             LOCAL ORBITAL
:E0_0006: E( 0)=    0.5033
             APW+lo
:E0_0006: E( 0)=   -0.6100   E(BOTTOM)=   -1.050   E(TOP)= -200.000  5 -1   150
             LOCAL ORBITAL
:E1_0006: E( 1)=    0.1033
             APW+lo

          ATOMIC SPHERE DEPENDENT PARAMETERS FOR ATOM  Pb7       
:e__0007: OVERALL ENERGY PARAMETER IS    0.1033
          OVERALL BASIS SET ON ATOM IS LAPW
:E2_0007: E( 2)=    0.5033
             APW+lo
:E2_0007: E( 2)=   -0.9191   E(BOTTOM)=   -1.161   E(TOP)=   -0.677  2  3   125
             LOCAL ORBITAL
:E0_0007: E( 0)=    0.5033
             APW+lo
:E0_0007: E( 0)=   -0.6100   E(BOTTOM)=   -1.052   E(TOP)= -200.000  5 -1   154
             LOCAL ORBITAL
:E1_0007: E( 1)=    0.1033
             APW+lo

          ATOMIC SPHERE DEPENDENT PARAMETERS FOR ATOM  Pb8       
:e__0008: OVERALL ENERGY PARAMETER IS    0.1033
          OVERALL BASIS SET ON ATOM IS LAPW
:E2_0008: E( 2)=    0.5033
             APW+lo
:E2_0008: E( 2)=   -0.9188   E(BOTTOM)=   -1.161   E(TOP)=   -0.677  2  3   129
             LOCAL ORBITAL
:E0_0008: E( 0)=    0.5033
             APW+lo
:E0_0008: E( 0)=   -0.6100   E(BOTTOM)=   -1.051   E(TOP)= -200.000  5 -1   157
             LOCAL ORBITAL
:E1_0008: E( 1)=    0.1033
             APW+lo

          ATOMIC SPHERE DEPENDENT PARAMETERS FOR ATOM  Pb9       
:e__0009: OVERALL ENERGY PARAMETER IS    0.1033
          OVERALL BASIS SET ON ATOM IS LAPW
:E2_0009: E( 2)=    0.5033
             APW+lo
:E2_0009: E( 2)=   -0.9161   E(BOTTOM)=   -1.158   E(TOP)=   -0.674  2  3   122
             LOCAL ORBITAL
:E0_0009: E( 0)=    0.5033
             APW+lo
:E0_0009: E( 0)=   -0.6100   E(BOTTOM)=   -1.049   E(TOP)= -200.000  5 -1   155
             LOCAL ORBITAL
:E1_0009: E( 1)=    0.1033
             APW+lo

          ATOMIC SPHERE DEPENDENT PARAMETERS FOR ATOM  Tl10      
:e__0010: OVERALL ENERGY PARAMETER IS    0.1033
          OVERALL BASIS SET ON ATOM IS LAPW
:E2_0010: E( 2)=    0.5033
             APW+lo
:E2_0010: E( 2)=   -0.4947   E(BOTTOM)=   -0.796   E(TOP)=   -0.193  2  3   132
             LOCAL ORBITAL
:E0_0010: E( 0)=    0.1033
             APW+lo
:E1_0010: E( 1)=    0.1033
             APW+lo

          ATOMIC SPHERE DEPENDENT PARAMETERS FOR ATOM  Pb11      
:e__0011: OVERALL ENERGY PARAMETER IS    0.1033
          OVERALL BASIS SET ON ATOM IS LAPW
:E2_0011: E( 2)=    0.5033
             APW+lo
:E2_0011: E( 2)=   -0.9189   E(BOTTOM)=   -1.161   E(TOP)=   -0.677  2  3   125
             LOCAL ORBITAL
:E0_0011: E( 0)=    0.5033
             APW+lo
:E0_0011: E( 0)=   -0.6100   E(BOTTOM)=   -1.051   E(TOP)= -200.000  5 -1   156
             LOCAL ORBITAL
:E1_0011: E( 1)=    0.1033
             APW+lo

          ATOMIC SPHERE DEPENDENT PARAMETERS FOR ATOM  Pb12      
:e__0012: OVERALL ENERGY PARAMETER IS    0.1033
          OVERALL BASIS SET ON ATOM IS LAPW
:E2_0012: E( 2)=    0.5033
             APW+lo
:E2_0012: E( 2)=   -0.9188   E(BOTTOM)=   -1.161   E(TOP)=   -0.677  2  3   129
             LOCAL ORBITAL
:E0_0012: E( 0)=    0.5033
             APW+lo
:E0_0012: E( 0)=   -0.6100   E(BOTTOM)=   -1.051   E(TOP)= -200.000  5 -1   159
             LOCAL ORBITAL
:E1_0012: E( 1)=    0.1033
             APW+lo

          ATOMIC SPHERE DEPENDENT PARAMETERS FOR ATOM  Pb13      
:e__0013: OVERALL ENERGY PARAMETER IS    0.1033
          OVERALL BASIS SET ON ATOM IS LAPW
:E2_0013: E( 2)=    0.5033
             APW+lo
:E2_0013: E( 2)=   -0.9186   E(BOTTOM)=   -1.161   E(TOP)=   -0.677  2  3   125
             LOCAL ORBITAL
:E0_0013: E( 0)=    0.5033
             APW+lo
:E0_0013: E( 0)=   -0.6100   E(BOTTOM)=   -1.051   E(TOP)= -200.000  5 -1   154
             LOCAL ORBITAL
:E1_0013: E( 1)=    0.1033
             APW+lo

          ATOMIC SPHERE DEPENDENT PARAMETERS FOR ATOM  Pb14      
:e__0014: OVERALL ENERGY PARAMETER IS    0.1033
          OVERALL BASIS SET ON ATOM IS LAPW
:E2_0014: E( 2)=    0.5033
             APW+lo
:E2_0014: E( 2)=   -0.9189   E(BOTTOM)=   -1.161   E(TOP)=   -0.677  2  3   126
             LOCAL ORBITAL
:E0_0014: E( 0)=    0.5033
             APW+lo
:E0_0014: E( 0)=   -0.6100   E(BOTTOM)=   -1.051   E(TOP)= -200.000  5 -1   156
             LOCAL ORBITAL
:E1_0014: E( 1)=    0.1033
             APW+lo

          ATOMIC SPHERE DEPENDENT PARAMETERS FOR ATOM  Pb15      
:e__0015: OVERALL ENERGY PARAMETER IS    0.1033
          OVERALL BASIS SET ON ATOM IS LAPW
:E2_0015: E( 2)=    0.5033
             APW+lo
:E2_0015: E( 2)=   -0.9188   E(BOTTOM)=   -1.161   E(TOP)=   -0.677  2  3   121
             LOCAL ORBITAL
:E0_0015: E( 0)=    0.5033
             APW+lo
:E0_0015: E( 0)=   -0.6100   E(BOTTOM)=   -1.051   E(TOP)= -200.000  5 -1   158
             LOCAL ORBITAL
:E1_0015: E( 1)=    0.1033
             APW+lo

          ATOMIC SPHERE DEPENDENT PARAMETERS FOR ATOM  Pb16      
:e__0016: OVERALL ENERGY PARAMETER IS    0.1033
          OVERALL BASIS SET ON ATOM IS LAPW
:E2_0016: E( 2)=    0.5033
             APW+lo
:E2_0016: E( 2)=   -0.9187   E(BOTTOM)=   -1.161   E(TOP)=   -0.677  2  3   124
             LOCAL ORBITAL
:E0_0016: E( 0)=    0.5033
             APW+lo
:E0_0016: E( 0)=   -0.6100   E(BOTTOM)=   -1.051   E(TOP)= -200.000  5 -1   155
             LOCAL ORBITAL
:E1_0016: E( 1)=    0.1033
             APW+lo

          ATOMIC SPHERE DEPENDENT PARAMETERS FOR ATOM  Pb17      
:e__0017: OVERALL ENERGY PARAMETER IS    0.1033
          OVERALL BASIS SET ON ATOM IS LAPW
:E2_0017: E( 2)=    0.5033
             APW+lo
:E2_0017: E( 2)=   -0.9188   E(BOTTOM)=   -1.161   E(TOP)=   -0.677  2  3   128
             LOCAL ORBITAL
:E0_0017: E( 0)=    0.5033
             APW+lo
:E0_0017: E( 0)=   -0.6100   E(BOTTOM)=   -1.051   E(TOP)= -200.000  5 -1   160
             LOCAL ORBITAL
:E1_0017: E( 1)=    0.1033
             APW+lo

          ATOMIC SPHERE DEPENDENT PARAMETERS FOR ATOM  Pb18      
:e__0018: OVERALL ENERGY PARAMETER IS    0.1033
          OVERALL BASIS SET ON ATOM IS LAPW
:E2_0018: E( 2)=    0.5033
             APW+lo
:E2_0018: E( 2)=   -0.9183   E(BOTTOM)=   -1.160   E(TOP)=   -0.676  2  3   127
             LOCAL ORBITAL
:E0_0018: E( 0)=    0.5033
             APW+lo
:E0_0018: E( 0)=   -0.6100   E(BOTTOM)=   -1.051   E(TOP)= -200.000  5 -1   154
             LOCAL ORBITAL
:E1_0018: E( 1)=    0.1033
             APW+lo

          ATOMIC SPHERE DEPENDENT PARAMETERS FOR ATOM  Pb19      
:e__0019: OVERALL ENERGY PARAMETER IS    0.1033
          OVERALL BASIS SET ON ATOM IS LAPW
:E2_0019: E( 2)=    0.5033
             APW+lo
:E2_0019: E( 2)=   -0.9185   E(BOTTOM)=   -1.160   E(TOP)=   -0.677  2  3   124
             LOCAL ORBITAL
:E0_0019: E( 0)=    0.5033
             APW+lo
:E0_0019: E( 0)=   -0.6100   E(BOTTOM)=   -1.051   E(TOP)= -200.000  5 -1   156
             LOCAL ORBITAL
:E1_0019: E( 1)=    0.1033
             APW+lo

          ATOMIC SPHERE DEPENDENT PARAMETERS FOR ATOM  Te20      
:e__0020: OVERALL ENERGY PARAMETER IS    0.1033
          OVERALL BASIS SET ON ATOM IS LAPW
:E2_0020: E( 2)=    0.1033
             APW+lo
:E2_0020: E( 2)=   -2.3509   E(BOTTOM)=   -2.406   E(TOP)=   -2.296  1  2   136
             LOCAL ORBITAL
:E0_0020: E( 0)=    0.5033
             APW+lo
:E0_0020: E( 0)=   -0.2284   E(BOTTOM)=   -1.222   E(TOP)=    0.765  4  5   200
             LOCAL ORBITAL
:E1_0020: E( 1)=    0.1033
             APW+lo

          ATOMIC SPHERE DEPENDENT PARAMETERS FOR ATOM  Te21      
:e__0021: OVERALL ENERGY PARAMETER IS    0.1033
          OVERALL BASIS SET ON ATOM IS LAPW
:E2_0021: E( 2)=    0.1033
             APW+lo
:E2_0021: E( 2)=   -2.3508   E(BOTTOM)=   -2.406   E(TOP)=   -2.296  1  2   135
             LOCAL ORBITAL
:E0_0021: E( 0)=    0.5033
             APW+lo
:E0_0021: E( 0)=   -0.2283   E(BOTTOM)=   -1.222   E(TOP)=    0.765  4  5   199
             LOCAL ORBITAL
:E1_0021: E( 1)=    0.1033
             APW+lo

          ATOMIC SPHERE DEPENDENT PARAMETERS FOR ATOM  Te22      
:e__0022: OVERALL ENERGY PARAMETER IS    0.1033
          OVERALL BASIS SET ON ATOM IS LAPW
:E2_0022: E( 2)=    0.1033
             APW+lo
:E2_0022: E( 2)=   -2.3509   E(BOTTOM)=   -2.406   E(TOP)=   -2.296  1  2   136
             LOCAL ORBITAL
:E0_0022: E( 0)=    0.5033
             APW+lo
:E0_0022: E( 0)=   -0.2284   E(BOTTOM)=   -1.222   E(TOP)=    0.765  4  5   206
             LOCAL ORBITAL
:E1_0022: E( 1)=    0.1033
             APW+lo

          ATOMIC SPHERE DEPENDENT PARAMETERS FOR ATOM  Te23      
:e__0023: OVERALL ENERGY PARAMETER IS    0.1033
          OVERALL BASIS SET ON ATOM IS LAPW
:E2_0023: E( 2)=    0.1033
             APW+lo
:E2_0023: E( 2)=   -2.3508   E(BOTTOM)=   -2.406   E(TOP)=   -2.296  1  2   137
             LOCAL ORBITAL
:E0_0023: E( 0)=    0.5033
             APW+lo
:E0_0023: E( 0)=   -0.2283   E(BOTTOM)=   -1.222   E(TOP)=    0.765  4  5   198
             LOCAL ORBITAL
:E1_0023: E( 1)=    0.1033
             APW+lo

          ATOMIC SPHERE DEPENDENT PARAMETERS FOR ATOM  Te24      
:e__0024: OVERALL ENERGY PARAMETER IS    0.1033
          OVERALL BASIS SET ON ATOM IS LAPW
:E2_0024: E( 2)=    0.1033
             APW+lo
:E2_0024: E( 2)=   -2.3508   E(BOTTOM)=   -2.406   E(TOP)=   -2.296  1  2   136
             LOCAL ORBITAL
:E0_0024: E( 0)=    0.5033
             APW+lo
:E0_0024: E( 0)=   -0.2283   E(BOTTOM)=   -1.222   E(TOP)=    0.765  4  5   201
             LOCAL ORBITAL
:E1_0024: E( 1)=    0.1033
             APW+lo

          ATOMIC SPHERE DEPENDENT PARAMETERS FOR ATOM  Te25      
:e__0025: OVERALL ENERGY PARAMETER IS    0.1033
          OVERALL BASIS SET ON ATOM IS LAPW
:E2_0025: E( 2)=    0.1033
             APW+lo
:E2_0025: E( 2)=   -2.3504   E(BOTTOM)=   -2.405   E(TOP)=   -2.296  1  2   133
             LOCAL ORBITAL
:E0_0025: E( 0)=    0.5033
             APW+lo
:E0_0025: E( 0)=   -0.2279   E(BOTTOM)=   -1.221   E(TOP)=    0.765  4  5   199
             LOCAL ORBITAL
:E1_0025: E( 1)=    0.1033
             APW+lo

          ATOMIC SPHERE DEPENDENT PARAMETERS FOR ATOM  Te26      
:e__0026: OVERALL ENERGY PARAMETER IS    0.1033
          OVERALL BASIS SET ON ATOM IS LAPW
:E2_0026: E( 2)=    0.1033
             APW+lo
:E2_0026: E( 2)=   -2.3509   E(BOTTOM)=   -2.406   E(TOP)=   -2.296  1  2   131
             LOCAL ORBITAL
:E0_0026: E( 0)=    0.5033
             APW+lo
:E0_0026: E( 0)=   -0.2284   E(BOTTOM)=   -1.222   E(TOP)=    0.765  4  5   199
             LOCAL ORBITAL
:E1_0026: E( 1)=    0.1033
             APW+lo

          ATOMIC SPHERE DEPENDENT PARAMETERS FOR ATOM  Te27      
:e__0027: OVERALL ENERGY PARAMETER IS    0.1033
          OVERALL BASIS SET ON ATOM IS LAPW
:E2_0027: E( 2)=    0.1033
             APW+lo
:E2_0027: E( 2)=   -2.3508   E(BOTTOM)=   -2.406   E(TOP)=   -2.296  1  2   136
             LOCAL ORBITAL
:E0_0027: E( 0)=    0.5033
             APW+lo
:E0_0027: E( 0)=   -0.2283   E(BOTTOM)=   -1.222   E(TOP)=    0.765  4  5   199
             LOCAL ORBITAL
:E1_0027: E( 1)=    0.1033
             APW+lo

          ATOMIC SPHERE DEPENDENT PARAMETERS FOR ATOM  Te28      
:e__0028: OVERALL ENERGY PARAMETER IS    0.1033
          OVERALL BASIS SET ON ATOM IS LAPW
:E2_0028: E( 2)=    0.1033
             APW+lo
:E2_0028: E( 2)=   -2.3507   E(BOTTOM)=   -2.406   E(TOP)=   -2.296  1  2   132
             LOCAL ORBITAL
:E0_0028: E( 0)=    0.5033
             APW+lo
:E0_0028: E( 0)=   -0.2282   E(BOTTOM)=   -1.222   E(TOP)=    0.765  4  5   202
             LOCAL ORBITAL
:E1_0028: E( 1)=    0.1033
             APW+lo

          ATOMIC SPHERE DEPENDENT PARAMETERS FOR ATOM  Te29      
:e__0029: OVERALL ENERGY PARAMETER IS    0.1033
          OVERALL BASIS SET ON ATOM IS LAPW
:E2_0029: E( 2)=    0.1033
             APW+lo
:E2_0029: E( 2)=   -2.3503   E(BOTTOM)=   -2.405   E(TOP)=   -2.295  1  2   136
             LOCAL ORBITAL
:E0_0029: E( 0)=    0.5033
             APW+lo
:E0_0029: E( 0)=   -0.2278   E(BOTTOM)=   -1.221   E(TOP)=    0.766  4  5   198
             LOCAL ORBITAL
:E1_0029: E( 1)=    0.1033
             APW+lo

          ATOMIC SPHERE DEPENDENT PARAMETERS FOR ATOM  Te30      
:e__0030: OVERALL ENERGY PARAMETER IS    0.1033
          OVERALL BASIS SET ON ATOM IS LAPW
:E2_0030: E( 2)=    0.1033
             APW+lo
:E2_0030: E( 2)=   -2.3489   E(BOTTOM)=   -2.404   E(TOP)=   -2.294  1  2   132
             LOCAL ORBITAL
:E0_0030: E( 0)=    0.5033
             APW+lo
:E0_0030: E( 0)=   -0.2263   E(BOTTOM)=   -1.220   E(TOP)=    0.767  4  5   197
             LOCAL ORBITAL
:E1_0030: E( 1)=    0.1033
             APW+lo

          ATOMIC SPHERE DEPENDENT PARAMETERS FOR ATOM  Te31      
:e__0031: OVERALL ENERGY PARAMETER IS    0.1033
          OVERALL BASIS SET ON ATOM IS LAPW
:E2_0031: E( 2)=    0.1033
             APW+lo
:E2_0031: E( 2)=   -2.3484   E(BOTTOM)=   -2.403   E(TOP)=   -2.294  1  2   131
             LOCAL ORBITAL
:E0_0031: E( 0)=    0.5033
             APW+lo
:E0_0031: E( 0)=   -0.2257   E(BOTTOM)=   -1.219   E(TOP)=    0.768  4  5   195
             LOCAL ORBITAL
:E1_0031: E( 1)=    0.1033
             APW+lo

          ATOMIC SPHERE DEPENDENT PARAMETERS FOR ATOM  Te32      
:e__0032: OVERALL ENERGY PARAMETER IS    0.1033
          OVERALL BASIS SET ON ATOM IS LAPW
:E2_0032: E( 2)=    0.1033
             APW+lo
:E2_0032: E( 2)=   -2.3508   E(BOTTOM)=   -2.406   E(TOP)=   -2.296  1  2   137
             LOCAL ORBITAL
:E0_0032: E( 0)=    0.5033
             APW+lo
:E0_0032: E( 0)=   -0.2284   E(BOTTOM)=   -1.222   E(TOP)=    0.765  4  5   201
             LOCAL ORBITAL
:E1_0032: E( 1)=    0.1033
             APW+lo

          ATOMIC SPHERE DEPENDENT PARAMETERS FOR ATOM  Te33      
:e__0033: OVERALL ENERGY PARAMETER IS    0.1033
          OVERALL BASIS SET ON ATOM IS LAPW
:E2_0033: E( 2)=    0.1033
             APW+lo
:E2_0033: E( 2)=   -2.3507   E(BOTTOM)=   -2.406   E(TOP)=   -2.296  1  2   132
             LOCAL ORBITAL
:E0_0033: E( 0)=    0.5033
             APW+lo
:E0_0033: E( 0)=   -0.2282   E(BOTTOM)=   -1.222   E(TOP)=    0.765  4  5   200
             LOCAL ORBITAL
:E1_0033: E( 1)=    0.1033
             APW+lo

          ATOMIC SPHERE DEPENDENT PARAMETERS FOR ATOM  Te34      
:e__0034: OVERALL ENERGY PARAMETER IS    0.1033
          OVERALL BASIS SET ON ATOM IS LAPW
:E2_0034: E( 2)=    0.1033
             APW+lo
:E2_0034: E( 2)=   -2.3506   E(BOTTOM)=   -2.405   E(TOP)=   -2.296  1  2   135
             LOCAL ORBITAL
:E0_0034: E( 0)=    0.5033
             APW+lo
:E0_0034: E( 0)=   -0.2281   E(BOTTOM)=   -1.221   E(TOP)=    0.765  4  5   201
             LOCAL ORBITAL
:E1_0034: E( 1)=    0.1033
             APW+lo

          ATOMIC SPHERE DEPENDENT PARAMETERS FOR ATOM  Te35      
:e__0035: OVERALL ENERGY PARAMETER IS    0.1033
          OVERALL BASIS SET ON ATOM IS LAPW
:E2_0035: E( 2)=    0.1033
             APW+lo
:E2_0035: E( 2)=   -2.3509   E(BOTTOM)=   -2.406   E(TOP)=   -2.296  1  2   132
             LOCAL ORBITAL
:E0_0035: E( 0)=    0.5033
             APW+lo
:E0_0035: E( 0)=   -0.2284   E(BOTTOM)=   -1.222   E(TOP)=    0.765  4  5   199
             LOCAL ORBITAL
:E1_0035: E( 1)=    0.1033
             APW+lo
:WAR   : LOPW-exhausted for atom   14 PASS 1  had to reduce check 0.010000

       K=   0.00000   0.00000   0.00000            1
:RKM  : MATRIX SIZE 18802LOs:7679  RKM= 4.47  WEIGHT= 1.00  PGR:    
       EIGENVALUES ARE:
:EIG00001:      -2.3266419   -2.3266419   -2.3266419   -2.3265808   -2.3265808
:EIG00006:      -2.3263406   -2.3263406   -2.3263406   -2.3262433   -2.3260986
:EIG00011:      -2.3260986   -2.3238242   -2.3238242   -2.3238238   -2.3236955
:EIG00016:      -2.3236955   -2.3236955   -2.3236289   -2.3236289   -2.3236289
:EIG00021:      -2.3236088   -2.3236088   -2.3236088   -2.3236026   -2.3235984
:EIG00026:      -2.3235984   -2.3235984   -2.3235895   -2.3235895   -2.3235743
:EIG00031:      -2.3235743   -2.3235743   -2.3235699   -2.3235699   -2.3235699
:EIG00036:      -2.3235601   -2.3235601   -2.3235491   -2.3235491   -2.3235491
:EIG00041:      -2.3235456   -2.3234569   -2.3234569   -2.3234569   -2.3234140
:EIG00046:      -2.3234140   -2.3234140   -2.3234066   -2.3234021   -2.3234021
 
:EIG00051:      -2.3233508   -2.3233508   -2.3233221   -2.3233193   -2.3233193
:EIG00056:      -2.3233193   -2.3233168   -2.3233168   -2.3233168   -2.3232613
:EIG00061:      -2.3232613   -2.3232613   -2.3232536   -2.3232536   -2.3232536
:EIG00066:      -2.3232369   -2.3232369   -2.3232369   -2.3232328   -2.3232328
:EIG00071:      -2.3232328   -2.3232241   -2.3232241   -2.3232236   -2.3232236
:EIG00076:      -2.3232236   -2.3232062   -2.3232062   -2.3232062   -2.3231968
:EIG00081:      -2.3231968   -2.3231863   -2.3231827   -2.3231827   -2.3231827
:EIG00086:      -2.3231763   -2.3231763   -2.3231740   -2.3231740   -2.3231740
:EIG00091:      -2.3231592   -2.3231592   -2.3231592   -2.3231497   -2.3231402
:EIG00096:      -2.3231402   -2.3231339   -2.3231339   -2.3231339   -2.3231326
 
:EIG00101:      -2.3231233   -2.3231233   -2.3231233   -2.3231079   -2.3231079
:EIG00106:      -2.3231079   -2.3231052   -2.3231052   -2.3231052   -2.3231026
:EIG00111:      -2.3231026   -2.3231007   -2.3231000   -2.3230695   -2.3230695
:EIG00116:      -2.3230695   -2.3230627   -2.3230627   -2.3230627   -2.3230550
:EIG00121:      -2.3230550   -2.3230550   -2.3230477   -2.3230477   -2.3230286
:EIG00126:      -2.3230286   -2.3230286   -2.3230041   -2.3230041   -2.3230008
:EIG00131:      -2.3230008   -2.3230008   -2.3229989   -2.3229989   -2.3229989
:EIG00136:      -2.3229988   -2.3229988   -2.3229988   -2.3229986   -2.3229986
:EIG00141:      -2.3229953   -2.3229933   -2.3229933   -2.3229933   -2.3229823
:EIG00146:      -2.3229823   -2.3229823   -2.3229632   -2.3229493   -2.3229493
 
:EIG00151:      -2.3229493   -2.3229477   -2.3229477   -2.3229477   -2.3229299
:EIG00156:      -2.3229299   -2.3229261   -2.3229261   -2.3229261   -2.3229160
:EIG00161:      -2.3229160   -2.3229160   -2.3229142   -2.3229108   -2.3229075
:EIG00166:      -2.3229075   -2.3229032   -2.3229032   -2.3229032   -2.3228938
:EIG00171:      -2.3228938   -2.3228747   -2.3228747   -2.3228650   -2.3228603
:EIG00176:      -2.3228603   -2.3228603   -2.3228269   -2.3228269   -2.3228269
:EIG00181:      -2.3228127   -2.3227866   -2.3227866   -2.3227866   -2.3227784
:EIG00186:      -2.3227784   -2.3227784   -2.3227781   -2.3227719   -2.3227719
:EIG00191:      -2.3227719   -2.3227617   -2.3227617   -2.3227141   -2.3227141
:EIG00196:      -2.3227141   -2.3227000   -2.3227000   -2.3227000   -2.3226773
 
:EIG00201:      -2.3226773   -2.3226692   -2.3226692   -2.3226692   -2.3226448
:EIG00206:      -2.3226448   -2.3226448   -2.3226422   -2.3226422   -2.3226422
:EIG00211:      -2.3225945   -2.3225945   -2.3225865   -2.3225745   -2.3225745
:EIG00216:      -2.3225678   -2.3225646   -2.3225642   -2.3225642   -2.3225569
:EIG00221:      -2.3225569   -2.3225569   -2.3225446   -2.3225446   -2.3225446
:EIG00226:      -2.3224987   -2.3224987   -2.3224987   -2.3224582   -2.3224582
:EIG00231:      -2.3224582   -2.3224553   -2.3224553   -2.3224553   -2.3224448
:EIG00236:      -2.3224448   -2.3224448   -2.3224360   -2.3224360   -2.3224360
:EIG00241:      -2.3224355   -2.3224294   -2.3224294   -2.3224294   -2.3224152
:EIG00246:      -2.3224152   -2.3224152   -2.3223974   -2.3223961   -2.3223959
 
:EIG00251:      -2.3223959   -2.3223959   -2.3223914   -2.3223914   -2.3223766
:EIG00256:      -2.3223766   -2.3223766   -2.3223626   -2.3223626   -2.3223626
:EIG00261:      -2.3223613   -2.3223613   -2.3223594   -2.3223594   -2.3223594
:EIG00266:      -2.3223523   -2.3223523   -2.3223523   -2.3223448   -2.3223448
:EIG00271:      -2.3223001   -2.3223001   -2.3223001   -2.3222933   -2.3222933
:EIG00276:      -2.3222933   -2.3222855   -2.3222855   -2.3222855   -2.3222782
:EIG00281:      -2.3222782   -2.3222618   -2.3222618   -2.3222618   -2.3222608
:EIG00286:      -2.3222608   -2.3222608   -2.3222476   -2.3222303   -2.3222303
:EIG00291:      -2.3222303   -2.3222099   -2.3222099   -2.3222099   -2.3221793
:EIG00296:      -2.3221793   -2.3221790   -2.3221790   -2.3221790   -2.3221682
 
:EIG00301:      -2.3221682   -2.3221682   -2.3221421   -2.3221025   -2.3220991
:EIG00306:      -2.3220991   -2.3220838   -2.3220838   -2.3220838   -2.3220623
:EIG00311:      -2.3220603   -2.3220603   -2.3220554   -2.3220548   -2.3220548
:EIG00316:      -2.3220548   -2.3220498   -2.3220498   -2.3220498   -2.3220243
:EIG00321:      -2.3220243   -2.3220243   -2.3220134   -2.3220134   -2.3220134
:EIG00326:      -2.3220120   -2.3220120   -2.3220120   -2.3219998   -2.3219998
:EIG00331:      -2.3219907   -2.3219758   -2.3219758   -2.3219758   -2.3219622
:EIG00336:      -2.3219622   -2.3219608   -2.3219608   -2.3219608   -2.3219569
:EIG00341:      -2.3219569   -2.3219569   -2.3219565   -2.3219526   -2.3219526
:EIG00346:      -2.3219526   -2.3219522   -2.3219522   -2.3219396   -2.3219170
 
:EIG00351:      -2.3219170   -2.3219128   -2.3219128   -2.3219128   -2.3219117
:EIG00356:      -2.3219117   -2.3219117   -2.3218840   -2.3218840   -2.3218840
:EIG00361:      -2.3218832   -2.3218832   -2.3218832   -2.3218825   -2.3218825
:EIG00366:      -2.3218825   -2.3218691   -2.3218452   -2.3218452   -2.3218452
:EIG00371:      -2.3218194   -2.3218194   -2.3218194   -2.3218118   -2.3218118
:EIG00376:      -2.3218118   -2.3218060   -2.3218060   -2.3218060   -2.3217978
:EIG00381:      -2.3217978   -2.3217946   -2.3217895   -2.3217895   -2.3217895
:EIG00386:      -2.3217761   -2.3217761   -2.3217761   -2.3217738   -2.3217738
:EIG00391:      -2.3217738   -2.3217720   -2.3217720   -2.3217720   -2.3217645
:EIG00396:      -2.3217645   -2.3217645   -2.3217623   -2.3217623   -2.3217623
 
:EIG00401:      -2.3217452   -2.3217452   -2.3217452   -2.3217272   -2.3217261
:EIG00406:      -2.3217261   -2.3217261   -2.3217176   -2.3217176   -2.3217176
:EIG00411:      -2.3217146   -2.3217146   -2.3217146   -2.3217070   -2.3217070
:EIG00416:      -2.3217049   -2.3217049   -2.3216939   -2.3216939   -2.3216939
:EIG00421:      -2.3216862   -2.3216862   -2.3216862   -2.3216790   -2.3216330
:EIG00426:      -2.3216330   -2.3216330   -2.3216146   -2.3215751   -2.3215751
:EIG00431:      -2.3215709   -2.3215709   -2.3215694   -2.3215539   -2.3215539
:EIG00436:      -2.3215539   -2.3215334   -2.3215334   -2.3215334   -2.3215322
:EIG00441:      -2.3215322   -2.3215322   -2.3215208   -2.3215208   -2.3215208
:EIG00446:      -2.3215137   -2.3215137   -2.3215137   -2.3214729   -2.3214729
 
:EIG00451:      -2.3214729   -2.3214483   -2.3214483   -2.3214483   -2.3214187
:EIG00456:      -2.3214187   -2.3214187   -2.3213851   -2.3213851   -2.3213851
:EIG00461:      -2.3213798   -2.3213798   -2.3213493   -2.3213493   -2.3213493
:EIG00466:      -2.3213439   -2.3213439   -2.3213439   -2.3213345   -2.3213345
:EIG00471:      -2.3213247   -2.3213216   -2.3213216   -2.3213216   -2.3213186
:EIG00476:      -2.3213053   -2.3213053   -2.3213053   -2.3212675   -2.3212675
:EIG00481:      -2.3211986   -2.3211986   -2.3211986   -2.3211982   -2.3211982
:EIG00486:      -2.3211982   -2.3211741   -2.3211741   -2.3211741   -2.3211046
:EIG00491:      -2.3210988   -2.3210988   -2.3210988   -2.3210928   -2.3210927
:EIG00496:      -2.3210927   -2.3210598   -2.3210598   -2.3210598   -2.3210266
 
:EIG00501:      -2.3210266   -2.3209857   -2.3209857   -2.3209857   -2.3209816
:EIG00506:      -2.3209816   -2.3209816   -2.3209621   -2.3209621   -2.3209621
:EIG00511:      -2.3209616   -2.3209616   -2.3209616   -2.3209584   -2.3209584
:EIG00516:      -2.3209458   -2.3209458   -2.3209458   -2.3209230   -2.3209166
:EIG00521:      -2.3209166   -2.3209135   -2.3209057   -2.3208714   -2.3208714
:EIG00526:      -2.3208714   -2.3207798   -2.3207798   -2.3207798   -2.3207746
:EIG00531:      -2.3207746   -2.3207746   -2.3207268   -2.3207072   -2.3207072
:EIG00536:      -2.3206971   -2.3206971   -2.3206971   -2.3206897   -2.3206897
:EIG00541:      -2.3206897   -2.3206431   -2.3206431   -2.3206431   -2.3206398
:EIG00546:      -2.3206398   -2.3206398   -2.3206299   -2.3206299   -2.3206117
 
:EIG00551:      -2.3206117   -2.3206049   -2.3206049   -2.3206049   -2.3205872
:EIG00556:      -2.3205872   -2.3205872   -2.3205863   -2.3205863   -2.3205863
:EIG00561:      -2.3205776   -2.3205776   -2.3205776   -2.3205642   -2.3205535
:EIG00566:      -2.3205535   -2.3205535   -2.3205414   -2.3205414   -2.3205414
:EIG00571:      -2.3205308   -2.3205308   -2.3205308   -2.3205237   -2.3205237
:EIG00576:      -2.3205232   -2.3205057   -2.3205057   -2.3205057   -2.3204830
:EIG00581:      -2.3204830   -2.3204677   -2.3204677   -2.3204677   -2.3204629
:EIG00586:      -2.3204563   -2.3204477   -2.3204477   -2.3204477   -2.3204266
:EIG00591:      -2.3204266   -2.3204128   -2.3204128   -2.3204128   -2.3203903
:EIG00596:      -2.3203903   -2.3203839   -2.3203839   -2.3203839   -2.3203172
 
:EIG00601:      -2.3203172   -2.3203172   -2.3203060   -2.3202319   -2.3202319
:EIG00606:      -2.3202319   -2.3202309   -2.3201321   -2.3201321   -2.3201321
:EIG00611:      -2.3201032   -2.3201032   -2.3201032   -2.3200886   -2.3200886
:EIG00616:      -2.3200354   -2.3200342   -2.3200342   -2.3200342   -2.3200310
:EIG00621:      -2.3200310   -2.3200310   -2.3200052   -2.3199865   -2.3199865
:EIG00626:      -2.3199775   -2.3199775   -2.3199775   -2.3199665   -2.3199665
:EIG00631:      -2.3199665   -2.3198584   -2.3198584   -2.3198390   -2.3198390
:EIG00636:      -2.3198390   -2.3198312   -2.3198196   -2.3198196   -2.3198196
:EIG00641:      -2.3197912   -2.3197912   -2.3197912   -2.3197865   -2.3197865
:EIG00646:      -2.3197865   -2.3197657   -2.3197657   -2.3197657   -2.3197401
 
:EIG00651:      -2.3197401   -2.3197336   -2.3197336   -2.3197336   -2.3197218
:EIG00656:      -2.3197218   -2.3197218   -2.3196922   -2.3196922   -2.3196922
:EIG00661:      -2.3196841   -2.3196812   -2.3196812   -2.3196812   -2.3196806
:EIG00666:      -2.3196806   -2.3196806   -2.3196616   -2.3196616   -2.3196616
:EIG00671:      -2.3196589   -2.3196589   -2.3196589   -2.3196530   -2.3196530
:EIG00676:      -2.3196485   -2.3196316   -2.3196316   -2.3196316   -2.3196246
:EIG00681:      -2.3196246   -2.3196095   -2.3196003   -2.3196003   -2.3196003
:EIG00686:      -2.3195802   -2.3195773   -2.3195616   -2.3195616   -2.3195616
:EIG00691:      -2.3195582   -2.3195582   -2.3195582   -2.3195513   -2.3195513
:EIG00696:      -2.3195333   -2.3195333   -2.3195265   -2.3195093   -2.3195093
 
:EIG00701:      -2.3195093   -2.3194976   -2.3194976   -2.3194976   -2.3194890
:EIG00706:      -2.3194890   -2.3194890   -2.3194844   -2.3194752   -2.3194752
:EIG00711:      -2.3194752   -2.3194715   -2.3194715   -2.3194594   -2.3194594
:EIG00716:      -2.3194594   -2.3194199   -2.3194199   -2.3194199   -2.3194098
:EIG00721:      -2.3194098   -2.3194098   -2.3194053   -2.3194053   -2.3193797
:EIG00726:      -2.3193797   -2.3193609   -2.3193609   -2.3193609   -2.3193535
:EIG00731:      -2.3193535   -2.3193535   -2.3193498   -2.3193498   -2.3193400
:EIG00736:      -2.3193400   -2.3193400   -2.3193310   -2.3193263   -2.3193263
:EIG00741:      -2.3193263   -2.3192982   -2.3192982   -2.3192955   -2.3192955
:EIG00746:      -2.3192955   -2.3192889   -2.3192889   -2.3192889   -2.3192886
 
:EIG00751:      -2.3192886   -2.3192886   -2.3192862   -2.3192771   -2.3192498
:EIG00756:      -2.3192498   -2.3192498   -2.3192429   -2.3192429   -2.3192310
:EIG00761:      -2.3192310   -2.3192310   -2.3192280   -2.3192056   -2.3192056
:EIG00766:      -2.3192056   -2.3192054   -2.3192054   -2.3191989   -2.3191989
:EIG00771:      -2.3191989   -2.3191964   -2.3191964   -2.3191964   -2.3191919
:EIG00776:      -2.3191919   -2.3191919   -2.3191637   -2.3191637   -2.3191637
:EIG00781:      -2.3191466   -2.3191296   -2.3191296   -2.3191044   -2.3191044
:EIG00786:      -2.3191044   -2.3190679   -2.3190679   -2.3190194   -2.3189812
:EIG00791:      -2.3189812   -2.3189812   -2.3189797   -2.3189797   -2.3189731
:EIG00796:      -2.3189668   -2.3189668   -2.3189668   -2.3189565   -2.3189565
 
:EIG00801:      -2.3189565   -2.3189322   -2.3189322   -2.3189300   -2.3189059
:EIG00806:      -2.3189059   -2.3189059   -2.3189051   -2.3188214   -2.3188214
:EIG00811:      -2.3188214   -2.3188197   -2.3187528   -2.3187528   -2.3187528
:EIG00816:      -2.3186585   -2.3186281   -2.3186281   -2.3186281   -2.3186173
:EIG00821:      -2.3186173   -2.3185831   -2.3185831   -2.3185831   -2.3185721
:EIG00826:      -2.3185721   -2.3185721   -2.3185566   -2.3185566   -2.3185315
:EIG00831:      -2.3185315   -2.3185315   -2.3185033   -2.3185033   -2.3185033
:EIG00836:      -2.3184870   -2.3184870   -2.3184753   -2.3184625   -2.3184625
:EIG00841:      -2.3184625   -2.3184344   -2.3184344   -2.3184344   -2.3184327
:EIG00846:      -2.3184327   -2.3184127   -2.3184127   -2.3184127   -2.3183420
 
:EIG00851:      -2.3183420   -2.3183420   -2.3183402   -2.3183354   -2.3183354
:EIG00856:      -2.3183354   -2.3183161   -2.3183161   -2.3182936   -2.3182936
:EIG00861:      -2.3182840   -2.3182840   -2.3182840   -2.3182579   -2.3182579
:EIG00866:      -2.3182579   -2.3182525   -2.3182525   -2.3182525   -2.3182503
:EIG00871:      -2.3182453   -2.3182453   -2.3182453   -2.3182331   -2.3182331
:EIG00876:      -2.3182325   -2.3182325   -2.3182325   -2.3181941   -2.3181941
:EIG00881:      -2.3181941   -2.3181666   -2.3181666   -2.3181666   -2.3181626
:EIG00886:      -2.3181603   -2.3181603   -2.3181603   -2.3181420   -2.3181140
:EIG00891:      -2.3181140   -2.3181140   -2.3180953   -2.3180953   -2.3180953
:EIG00896:      -2.3180580   -2.3180315   -2.3180315   -2.3180315   -2.3179553
 
:EIG00901:      -2.3179553   -2.3179527   -2.3179527   -2.3179288   -2.3179288
:EIG00906:      -2.3179288   -2.3179283   -2.3179283   -2.3179283   -2.3178323
:EIG00911:      -2.3178323   -2.3178323   -2.3178041   -2.3178041   -2.3178041
:EIG00916:      -2.3177951   -2.3177951   -2.3177951   -2.3177811   -2.3177811
:EIG00921:      -2.3177547   -2.3177547   -2.3177547   -2.3177250   -2.3177250
:EIG00926:      -2.3177168   -2.3177168   -2.3177168   -2.3176988   -2.3176855
:EIG00931:      -2.3176717   -2.3176717   -2.3176717   -2.3176363   -2.3176363
:EIG00936:      -2.3176363   -2.3176321   -2.3176122   -2.3176122   -2.3176122
:EIG00941:      -2.3176113   -2.3176113   -2.3176113   -2.3176040   -2.3176040
:EIG00946:      -2.3176040   -2.3176027   -2.3176027   -2.3176027   -2.3176012
 
:EIG00951:      -2.3176012   -2.3176012   -2.3175944   -2.3175944   -2.3175788
:EIG00956:      -2.3175688   -2.3175688   -2.3175688   -2.3175591   -2.3175591
:EIG00961:      -2.3175591   -2.3175460   -2.3175460   -2.3175460   -2.3175405
:EIG00966:      -2.3175394   -2.3175394   -2.3175394   -2.3175340   -2.3175340
:EIG00971:      -2.3175340   -2.3175277   -2.3175277   -2.3175135   -2.3175074
:EIG00976:      -2.3175009   -2.3175009   -2.3175009   -2.3174962   -2.3174962
:EIG00981:      -2.3174962   -2.3174737   -2.3174737   -2.3174699   -2.3174699
:EIG00986:      -2.3174699   -2.3174693   -2.3174693   -2.3174356   -2.3174356
:EIG00991:      -2.3174356   -2.3173868   -2.3173868   -2.3173868   -2.3173792
:EIG00996:      -2.3173792   -2.3173781   -2.3173781   -2.3173781   -2.3173730
 
:EIG01001:      -2.3173730   -2.3173730   -2.3173555   -2.3173555   -2.3173492
:EIG01006:      -2.3173492   -2.3173492   -2.3173437   -2.3173437   -2.3173437
:EIG01011:      -2.3173421   -2.3173421   -2.3173421   -2.3172970   -2.3172970
:EIG01016:      -2.3172970   -2.3172725   -2.3172725   -2.3172725   -2.3172535
:EIG01021:      -2.3172535   -2.3172535   -2.3172038   -2.3172038   -2.3172038
[...]
:NTO028: CHARGE SPHERE 28    =    49.545193
:NTO029: CHARGE SPHERE 29    =    49.544929
:NTO030: CHARGE SPHERE 30    =    49.543978
:NTO031: CHARGE SPHERE 31    =    49.543410
:NTO032: CHARGE SPHERE 32    =    49.545760
:NTO033: CHARGE SPHERE 33    =    49.545518
:NTO034: CHARGE SPHERE 34    =    49.545316
:NTO035: CHARGE SPHERE 35    =    49.545651

:NEC01: NUCLEAR AND ELECTRONIC CHARGE  34303.00000 34301.49805
     
       CHARGES OF OLD CHARGE DENSITY
:OTO   : INTERSTITIAL CHARGE =  1285.070211
:OPC   : INTERSTITIAL CHARGE =  1567.199398
:OTO001: CHARGE SPHERE  1    =    79.433805
:OTO002: CHARGE SPHERE  2    =    79.433736
:OTO003: CHARGE SPHERE  3    =    79.433785
:OTO004: CHARGE SPHERE  4    =    79.433677
:OTO005: CHARGE SPHERE  5    =    79.433662
:OTO006: CHARGE SPHERE  6    =    79.434940
:OTO007: CHARGE SPHERE  7    =    79.433608
:OTO008: CHARGE SPHERE  8    =    79.433593
:OTO009: CHARGE SPHERE  9    =    79.435374
:OTO010: CHARGE SPHERE 10    =    78.717565
:OTO011: CHARGE SPHERE 11    =    79.433881
:OTO012: CHARGE SPHERE 12    =    79.433894
:OTO013: CHARGE SPHERE 13    =    79.433947
:OTO014: CHARGE SPHERE 14    =    79.433848
:OTO015: CHARGE SPHERE 15    =    79.433854
:OTO016: CHARGE SPHERE 16    =    79.433760
:OTO017: CHARGE SPHERE 17    =    79.433861
:OTO018: CHARGE SPHERE 18    =    79.433827
:OTO019: CHARGE SPHERE 19    =    79.432565
:OTO020: CHARGE SPHERE 20    =    49.545510
:OTO021: CHARGE SPHERE 21    =    49.545527
:OTO022: CHARGE SPHERE 22    =    49.545468
:OTO023: CHARGE SPHERE 23    =    49.545495
:OTO024: CHARGE SPHERE 24    =    49.545421
:OTO025: CHARGE SPHERE 25    =    49.545119
:OTO026: CHARGE SPHERE 26    =    49.545454
:OTO027: CHARGE SPHERE 27    =    49.545366
:OTO028: CHARGE SPHERE 28    =    49.545309
:OTO029: CHARGE SPHERE 29    =    49.544842
:OTO030: CHARGE SPHERE 30    =    49.544235
:OTO031: CHARGE SPHERE 31    =    49.543026
:OTO032: CHARGE SPHERE 32    =    49.545503
:OTO033: CHARGE SPHERE 33    =    49.545492
:OTO034: CHARGE SPHERE 34    =    49.545479
:OTO035: CHARGE SPHERE 35    =    49.545452

:NEC02: NUCLEAR AND ELECTRONIC CHARGE  34303.00000 34303.00000
     
       CONVERGENCE TEST
:DTO001: DIFFERENCE IN SPHERE  1 =  0.0001841
:DTO002: DIFFERENCE IN SPHERE  2 =  0.0001354
:DTO003: DIFFERENCE IN SPHERE  3 =  0.0000867
:DTO004: DIFFERENCE IN SPHERE  4 =  0.0000765
:DTO005: DIFFERENCE IN SPHERE  5 =  0.0000587
:DTO006: DIFFERENCE IN SPHERE  6 =  0.0001317
:DTO007: DIFFERENCE IN SPHERE  7 =  0.0000780
:DTO008: DIFFERENCE IN SPHERE  8 =  0.0000738
:DTO009: DIFFERENCE IN SPHERE  9 =  0.0001034
:DTO010: DIFFERENCE IN SPHERE 10 =  0.0004241
:DTO011: DIFFERENCE IN SPHERE 11 =  0.0001557
:DTO012: DIFFERENCE IN SPHERE 12 =  0.0000828
:DTO013: DIFFERENCE IN SPHERE 13 =  0.0000781
:DTO014: DIFFERENCE IN SPHERE 14 =  0.0001060
:DTO015: DIFFERENCE IN SPHERE 15 =  0.0000579
:DTO016: DIFFERENCE IN SPHERE 16 =  0.0000887
:DTO017: DIFFERENCE IN SPHERE 17 =  0.0000640
:DTO018: DIFFERENCE IN SPHERE 18 =  0.0000616
:DTO019: DIFFERENCE IN SPHERE 19 =  0.0001352
:DTO020: DIFFERENCE IN SPHERE 20 =  0.0001982
:DTO021: DIFFERENCE IN SPHERE 21 =  0.0000876
:DTO022: DIFFERENCE IN SPHERE 22 =  0.0001148
:DTO023: DIFFERENCE IN SPHERE 23 =  0.0000573
:DTO024: DIFFERENCE IN SPHERE 24 =  0.0000394
:DTO025: DIFFERENCE IN SPHERE 25 =  0.0001824
:DTO026: DIFFERENCE IN SPHERE 26 =  0.0000496
:DTO027: DIFFERENCE IN SPHERE 27 =  0.0000501
:DTO028: DIFFERENCE IN SPHERE 28 =  0.0000584
:DTO029: DIFFERENCE IN SPHERE 29 =  0.0000726
:DTO030: DIFFERENCE IN SPHERE 30 =  0.0001230
:DTO031: DIFFERENCE IN SPHERE 31 =  0.0002478
:DTO032: DIFFERENCE IN SPHERE 32 =  0.0001493
:DTO033: DIFFERENCE IN SPHERE 33 =  0.0000428
:DTO034: DIFFERENCE IN SPHERE 34 =  0.0000782
:DTO035: DIFFERENCE IN SPHERE 35 =  0.0001134

:DIS  :  CHARGE DISTANCE       ( 0.0004241 for atom   10 spin 1)      0.0000844
 
******************************************************
* MULTISECANT MIXING VER9 RELEASE 9.4.1              *
* Standard Mode with controls                        *
* Fixed density scale                                *
* Regularization       1.000E-04                     *
* Trust Upper Limit    5.000E+00                     *
* Max Number of Memory Steps    8                    *
******************************************************
 
:PWTMP   8.2922E+04  6.4000E+04  1.1643E+05
:PLANE:  PW TOTAL     27.0708 DISTAN   1.95E-03  7.20E-03 %
:CHARG:  CLM/ATOM    958.5458 DISTAN   6.75E-05  7.04E-06 %
 
Step History
        DMIX         DMIXT        Red     Pred      Trust     Lambda    MagRel    MagAbs     Beta
  1   3.5000E-02   3.5000E-02 -1.00E+00  1.00E+00 -1.00E+01  1.00E+00  3.50E-02  3.50E-02  1.00E+00
  2   1.5000E-01   1.5000E-01  7.99E-01  1.00E+00 -1.00E+01  1.00E+00  1.50E-01  3.23E-03  1.00E+00
  3   7.1211E-02   7.1211E-02  8.81E-01  9.96E-01  3.00E+00  1.41E+00  5.63E-02  9.69E-04  9.99E-01
  4   1.7803E-01   1.7803E-01  5.76E-01  6.50E-01  1.16E+00  9.55E-01  6.22E-01  9.42E-03  1.00E+00
  5   1.7068E-01   1.7068E-01  4.97E-01  6.86E-01  2.30E+00  3.78E-01  2.80E-01  2.44E-03  1.00E+00
  6   1.8507E-01   1.8507E-01 -1.00E+00  8.55E-01  2.70E+00  1.00E+00  3.13E-01  1.36E-03  1.00E+00
:JACOBIANS    6.329E-01   6.048E-01
  
:NORMS:  1/Froebius, Min, Max, Used   0.6730E+00  0.3074E+00  0.9050E+00  0.8651E+00
:INFO :  Number of Memory Steps    5 Skipping    0
:INFO :  SLambda=    1.0000000  Max    1.0000000

Eigenvalues, unscaled except for SY+YY
   #     SY Real        SY Imag          SS             YY         SY+YY Real      SY+YY Imag
   1   2.386706E+00   0.000000E+00   2.208677E+00   2.951405E+00   5.327917E+00   0.000000E+00
   2   1.788003E-01   0.000000E+00   5.114490E-02   1.165004E+00   1.346049E+00   0.000000E+00
   3   5.535342E-02   0.000000E+00   3.991001E-03   8.198567E-01   8.796621E-01   0.000000E+00
   4   1.419572E-03   0.000000E+00   9.655208E-04   5.527111E-02   1.055658E-02   0.000000E+00
   5   8.509982E-03   0.000000E+00   1.875941E-04   8.463267E-03   6.660487E-02   0.000000E+00
 
:INFO :  Singular value  5.328E+00 Weight  1.000E+00 Projection  2.426E-04
:INFO :  Singular value  1.346E+00 Weight  1.000E+00 Projection -6.573E-04
:INFO :  Singular value  8.796E-01 Weight  1.000E+00 Projection  1.586E-03
:INFO :  Singular value  6.660E-02 Weight  1.000E+00 Projection  4.923E-03
:INFO :  Singular value  1.056E-02 Weight  9.992E-01 Projection -1.719E-02
:RANK :  ACTIVE   5.00/5  =  99.98 %
 
:BLIM :  VZERO Control Off
:TRUST:  Step 2.19E+00  Charge 1.97E-02 (e) CTO  1.12E+00 (e) PW  1.58E+00 (e)
:DIRM :  MEMORY  5/8  SCALE   1.000 RED  0.70 PRED  0.85 NEXT  0.60 
:TRAVE:  Charge 2.18E-04 (e) CTO  1.39E-02 (e) PW  4.28E-02 (e)
:DIRP :  |MSR1|= 8.611E-04 |PRATT|= 1.949E-03 ANGLE=  40.3 DEGREES
:DIRQ :  |MSR1|= 5.756E-04 |PRATT|= 2.362E-03 ANGLE=  42.8 DEGREES
:DIRT :  |MSR1|= 1.036E-03 |PRATT|= 3.062E-03 ANGLE=  44.1 DEGREES
:MIX  :   MSR1   REGULARIZATION:  2.95E-04 GREED: 0.21263  Newton 1.00  0.3382                
     
       CHARGES OF MIXED CHARGE DENSITY
:CTO   : INTERSTITIAL CHARGE =  1285.062152
:CPC   : INTERSTITIAL CHARGE =  1567.248962
:CTO001: CHARGE SPHERE  1    =    79.433860
:CTO002: CHARGE SPHERE  2    =    79.433773
:CTO003: CHARGE SPHERE  3    =    79.433804
:CTO004: CHARGE SPHERE  4    =    79.433698
:CTO005: CHARGE SPHERE  5    =    79.433666
:CTO006: CHARGE SPHERE  6    =    79.434925
:CTO007: CHARGE SPHERE  7    =    79.433635
:CTO008: CHARGE SPHERE  8    =    79.433616
:CTO009: CHARGE SPHERE  9    =    79.435386
:CTO010: CHARGE SPHERE 10    =    78.717553
:CTO011: CHARGE SPHERE 11    =    79.433926
:CTO012: CHARGE SPHERE 12    =    79.433915
:CTO013: CHARGE SPHERE 13    =    79.433948
:CTO014: CHARGE SPHERE 14    =    79.433878
:CTO015: CHARGE SPHERE 15    =    79.433872
:CTO016: CHARGE SPHERE 16    =    79.433793
:CTO017: CHARGE SPHERE 17    =    79.433877
:CTO018: CHARGE SPHERE 18    =    79.433838
:CTO019: CHARGE SPHERE 19    =    79.432608
:CTO020: CHARGE SPHERE 20    =    49.545562
:CTO021: CHARGE SPHERE 21    =    49.545542
:CTO022: CHARGE SPHERE 22    =    49.545497
:CTO023: CHARGE SPHERE 23    =    49.545488
:CTO024: CHARGE SPHERE 24    =    49.545423
:CTO025: CHARGE SPHERE 25    =    49.545084
:CTO026: CHARGE SPHERE 26    =    49.545470
:CTO027: CHARGE SPHERE 27    =    49.545388
:CTO028: CHARGE SPHERE 28    =    49.545307
:CTO029: CHARGE SPHERE 29    =    49.544862
:CTO030: CHARGE SPHERE 30    =    49.544212
:CTO031: CHARGE SPHERE 31    =    49.543029
:CTO032: CHARGE SPHERE 32    =    49.545543
:CTO033: CHARGE SPHERE 33    =    49.545502
:CTO034: CHARGE SPHERE 34    =    49.545478
:CTO035: CHARGE SPHERE 35    =    49.545478

:NEC03: NUCLEAR AND ELECTRONIC CHARGE  34303.00000 34303.00000

PW CHANGE     H    K    L      Current       Change    Residue
:PTO001:      0    0    0  2.44975248E-02  3.565E-07  5.234E-07
:PTO002:     -1    0    0  2.42868507E-05  8.095E-08  8.258E-07
:PTO003:     -1   -1    0 -4.20143095E-05  4.010E-07  3.865E-06
:PTO004:     -1   -1   -1  2.81672945E-05 -9.147E-08 -1.549E-06
:PTO005:     -2    0    0 -1.80747238E-05 -7.817E-08 -2.858E-07
:PTO006:     -2   -1    0  7.65627511E-05  1.531E-07  5.056E-07
:PTO007:     -2   -1   -1 -8.15887747E-05 -6.817E-08 -2.662E-07
:PTO008:     -2   -2    0 -3.93343411E-05  1.244E-08  1.058E-08
:PTO009:     -3    0    0  2.33733070E-05 -6.427E-09 -4.083E-08
:PTO010:     -2   -2   -1  9.11447325E-05 -2.449E-08 -5.374E-08
:PTO011:     -3   -1    0 -9.48967457E-05  3.446E-08  1.820E-07
:PTO012:     -3   -1   -1  1.02247606E-04 -2.430E-08 -1.193E-07

:ENE  : *WARNING** TOTAL ENERGY IN Ry =    -14185353.74453922

       TOTAL FORCE IN mRy/a.u. = |F|     Fx             Fy             Fz     with/without FOR in case.in2
:FOR001:   1.ATOM       0.000000       0.000000       0.000000       0.000000 total forces
:FOR002:   2.ATOM       0.091497       0.000000       0.000000       0.091497 total forces
:FOR003:   3.ATOM       0.000000       0.000000       0.000000       0.000000 total forces
:FOR004:   4.ATOM       0.124698       0.000000       0.000000       0.124698 total forces
:FOR005:   5.ATOM       0.233185       0.000000       0.000000       0.233185 total forces
:FOR006:   6.ATOM       0.000000       0.000000       0.000000       0.000000 total forces
:FOR007:   7.ATOM       0.069485       0.000000       0.000000       0.069485 total forces
:FOR008:   8.ATOM       0.184571       0.000000       0.000000       0.184571 total forces
:FOR009:   9.ATOM       1.049582       0.000000       0.000000       1.049582 total forces
:FOR010:  10.ATOM       0.000000       0.000000       0.000000       0.000000 total forces
:FOR011:  11.ATOM       0.055718       0.000000       0.000000       0.055718 total forces
:FOR012:  12.ATOM       0.099313       0.089399       0.043253       0.000000 total forces
:FOR013:  13.ATOM       0.258385       0.000000       0.000000       0.258385 total forces
:FOR014:  14.ATOM       0.098931      -0.089137      -0.042918       0.000000 total forces
:FOR015:  15.ATOM       0.125304       0.097155      -0.023194       0.075657 total forces
:FOR016:  16.ATOM       0.281756       0.241450      -0.145217       0.000000 total forces
:FOR017:  17.ATOM       0.102766       0.000000       0.000000       0.102766 total forces
:FOR018:  18.ATOM       0.506125       0.491553      -0.120575       0.000000 total forces
:FOR019:  19.ATOM       0.219136       0.000000       0.000000      -0.219136 total forces
:FOR020:  20.ATOM       0.114529       0.000000       0.000000       0.114529 total forces
:FOR021:  21.ATOM       0.078830       0.000000       0.000000       0.078830 total forces
:FOR022:  22.ATOM       0.164779       0.104309       0.127561       0.000000 total forces
:FOR023:  23.ATOM       0.130742       0.066905       0.112327       0.000000 total forces
:FOR024:  24.ATOM       0.062044       0.000000       0.000000       0.062044 total forces
:FOR025:  25.ATOM       0.168547       0.000000       0.000000      -0.168547 total forces
:FOR026:  26.ATOM       0.129001      -0.014034      -0.128235       0.000000 total forces
:FOR027:  27.ATOM       0.028268      -0.000041       0.028268       0.000000 total forces
:FOR028:  28.ATOM       0.070172      -0.014499      -0.068658       0.000000 total forces
:FOR029:  29.ATOM       0.314978       0.280850      -0.142599       0.000000 total forces
:FOR030:  30.ATOM       0.200509       0.000000       0.000000      -0.200509 total forces
:FOR031:  31.ATOM       0.924622       0.000000       0.000000      -0.924622 total forces
:FOR032:  32.ATOM       0.153060       0.000000       0.000000       0.153060 total forces
:FOR033:  33.ATOM       0.072071      -0.048146      -0.053631       0.000000 total forces
:FOR034:  34.ATOM       0.047508       0.032561       0.034594       0.000000 total forces
:FOR035:  35.ATOM       0.428832       0.000000       0.000000       0.428832 total forces
       TOTAL FORCE WITH RESPECT TO GLOBAL CARTESIAN COORDINATES:
:FCA001:   1.ATOM                      0.000000       0.000000       0.000000 total forces
:FCA002:   2.ATOM                      0.091497       0.000000       0.000000 total forces
:FCA003:   3.ATOM                      0.000000       0.000000       0.000000 total forces
:FCA004:   4.ATOM                      0.088175       0.088175       0.000000 total forces
:FCA005:   5.ATOM                      0.000000       0.233185       0.000000 total forces
:FCA006:   6.ATOM                      0.000000       0.000000       0.000000 total forces
:FCA007:   7.ATOM                      0.040117       0.040117       0.040117 total forces
:FCA008:   8.ATOM                      0.000000       0.130511       0.130511 total forces
:FCA009:   9.ATOM                      0.000000       0.000000       1.049582 total forces
:FCA010:  10.ATOM                      0.000000       0.000000       0.000000 total forces
:FCA011:  11.ATOM                      0.039398       0.039398       0.000000 total forces
:FCA012:  12.ATOM                      0.089399       0.043253       0.000000 total forces
:FCA013:  13.ATOM                      0.182706       0.182706       0.000000 total forces
:FCA014:  14.ATOM                      0.030348       0.030348       0.089137 total forces
:FCA015:  15.ATOM                      0.097155      -0.023194       0.075657 total forces
:FCA016:  16.ATOM                      0.102684       0.102684      -0.241450 total forces
:FCA017:  17.ATOM                      0.072666       0.072666       0.000000 total forces
:FCA018:  18.ATOM                      0.491553      -0.120575       0.000000 total forces
:FCA019:  19.ATOM                     -0.154953      -0.154953       0.000000 total forces
:FCA020:  20.ATOM                      0.114529       0.000000       0.000000 total forces
:FCA021:  21.ATOM                      0.078830       0.000000       0.000000 total forces
:FCA022:  22.ATOM                      0.104309       0.127561       0.000000 total forces
:FCA023:  23.ATOM                      0.066905       0.112327       0.000000 total forces
:FCA024:  24.ATOM                      0.062044       0.000000       0.000000 total forces
:FCA025:  25.ATOM                     -0.168547       0.000000       0.000000 total forces
:FCA026:  26.ATOM                      0.014034       0.090676       0.090676 total forces
:FCA027:  27.ATOM                      0.000041      -0.019989      -0.019989 total forces
:FCA028:  28.ATOM                     -0.068658       0.000000      -0.014499 total forces
:FCA029:  29.ATOM                     -0.142599       0.000000       0.280850 total forces
:FCA030:  30.ATOM                     -0.200509       0.000000       0.000000 total forces
:FCA031:  31.ATOM                     -0.924622       0.000000       0.000000 total forces
:FCA032:  32.ATOM                      0.088369       0.088369       0.088369 total forces
:FCA033:  33.ATOM                      0.048146       0.037923       0.037923 total forces
:FCA034:  34.ATOM                     -0.024462      -0.024462      -0.032561 total forces
:FCA035:  35.ATOM                      0.247586       0.247586       0.247586 total forces
       TOTAL FORCE WITH RESPECT TO THE GLOBAL COORDINATE SYSTEM:
:FGL001:   1.ATOM                 0.000000000     0.000000000     0.000000000 total forces
:FGL002:   2.ATOM                 0.091497254     0.000000000     0.000000000 total forces
:FGL003:   3.ATOM                 0.000000000     0.000000000     0.000000000 total forces
:FGL004:   4.ATOM                 0.088175011     0.088175011     0.000000000 total forces
:FGL005:   5.ATOM                 0.000000000     0.233184781     0.000000000 total forces
:FGL006:   6.ATOM                 0.000000000     0.000000000     0.000000000 total forces
:FGL007:   7.ATOM                 0.040117360     0.040117360     0.040117360 total forces
:FGL008:   8.ATOM                 0.000000000     0.130511383     0.130511383 total forces
:FGL009:   9.ATOM                 0.000000000     0.000000000     1.049582276 total forces
:FGL010:  10.ATOM                 0.000000000     0.000000000     0.000000000 total forces
:FGL011:  11.ATOM                 0.039398477     0.039398477     0.000000000 total forces
:FGL012:  12.ATOM                 0.089399150     0.043252796     0.000000000 total forces
:FGL013:  13.ATOM                 0.182705972     0.182705972     0.000000000 total forces
:FGL014:  14.ATOM                 0.030347778     0.030347778     0.089136803 total forces
:FGL015:  15.ATOM                 0.097155106    -0.023193837     0.075656801 total forces
:FGL016:  16.ATOM                 0.102684269     0.102684269    -0.241450259 total forces
:FGL017:  17.ATOM                 0.072666315     0.072666315     0.000000000 total forces
:FGL018:  18.ATOM                 0.491553068    -0.120574652     0.000000000 total forces
:FGL019:  19.ATOM                -0.154952769    -0.154952769     0.000000000 total forces
:FGL020:  20.ATOM                 0.114529258     0.000000000     0.000000000 total forces
:FGL021:  21.ATOM                 0.078830417     0.000000000     0.000000000 total forces
:FGL022:  22.ATOM                 0.104308598     0.127560675     0.000000000 total forces
:FGL023:  23.ATOM                 0.066904829     0.112326609     0.000000000 total forces
:FGL024:  24.ATOM                 0.062043767     0.000000000     0.000000000 total forces
:FGL025:  25.ATOM                -0.168547119     0.000000000     0.000000000 total forces
:FGL026:  26.ATOM                 0.014033687     0.090675940     0.090675940 total forces
:FGL027:  27.ATOM                 0.000040562    -0.019988694    -0.019988694 total forces
:FGL028:  28.ATOM                -0.068658125     0.000000000    -0.014498544 total forces
:FGL029:  29.ATOM                -0.142598994     0.000000000     0.280850349 total forces
:FGL030:  30.ATOM                -0.200508766     0.000000000     0.000000000 total forces
:FGL031:  31.ATOM                -0.924622226     0.000000000     0.000000000 total forces
:FGL032:  32.ATOM                 0.088369426     0.088369426     0.088369426 total forces
:FGL033:  33.ATOM                 0.048145608     0.037922836     0.037922836 total forces
:FGL034:  34.ATOM                -0.024461954    -0.024461954    -0.032560859 total forces
:FGL035:  35.ATOM                 0.247585998     0.247585998     0.247585998 total forces

:LABEL1: Calculations in /gpfs/data/fs71152/pickemVeCoCo/pbte/k8
:LABEL2: on n401-005.vsc4.prov at Tue May 24 17:18:11 CEST 2022
:LABEL3: using WIEN2k_19.1 (Release 25/6/2019) in /home/fs71152/pickemVeCoCo/wien2k_19.1
:LABEL4: using the command: run_lapw -ec 0.0001 -cc 0.0001 -NI

:LABEL1: Calculations in /gpfs/data/fs71152/pickemVeCoCo/pbte/k8
:LABEL2: on n401-005.vsc4.prov at Tue May 24 17:19:58 CEST 2022
:LABEL3: using WIEN2k_19.1 (Release 25/6/2019) in /home/fs71152/pickemVeCoCo/wien2k_19.1
:LABEL4: using the command: run_lapw -ec 0.0001 -cc 0.0001 -NI
